ITEM: TIMESTEP
0
ITEM: NUMBER OF ATOMS
10000
ITEM: BOX BOUNDS pp pp pp
-7.42329 7.42329
-7.42329 7.42329
-7.42329 7.42329
ITEM: ATOMS id type x y z 
1833 3 -6.428 -7.0835 -7.08366 
2654 3 -6.35683 -7.07861 -6.35337 
3241 3 -7.08429 -6.25327 -6.56684 
6111 4 -7.0829 -6.77574 -7.08338 
6563 4 -6.58126 -6.24343 -7.08106 
8555 4 -6.43758 -6.44383 -6.10737 
9469 5 -7.08351 -7.08335 -6.42447 
6 1 -6.04907 -6.57024 -6.72825 
714 2 -5.17679 -6.34606 -6.04265 
3858 3 -4.94355 -7.0802 -7.08454 
5403 3 -5.30484 -6.57102 -6.73706 
7473 4 -4.96879 -7.08324 -6.3204 
8719 4 -5.68474 -7.08277 -7.08342 
8721 4 -5.67135 -6.89712 -6.18979 
175 1 -4.20065 -7.08256 -7.08119 
256 1 -4.22818 -7.08053 -6.37485 
2946 3 -4.5353 -6.4408 -6.40652 
3337 3 -3.48061 -7.0824 -7.05348 
4423 3 -3.60714 -6.62476 -6.50579 
5354 3 -4.69485 -6.42727 -7.07874 
8859 4 -3.96464 -6.39995 -7.08063 
1723 3 -3.04914 -7.08166 -6.46214 
1980 3 -2.34458 -6.52582 -5.97381 
4932 3 -3.07181 -6.51365 -6.01127 
5017 3 -2.30606 -7.08348 -6.46146 
6407 4 -2.6778 -7.08477 -7.08241 
6804 4 -2.18827 -6.44321 -7.07748 
7507 4 -3.23147 -6.40779 -7.0808 
8393 4 -2.69035 -6.4832 -6.62509 
538 2 -1.40407 -7.08095 -6.40992 
1545 3 -1.16314 -7.08303 -7.08112 
2130 3 -1.45363 -6.41565 -7.08025 
2842 3 -1.83438 -6.52276 -6.49474 
5223 3 -1.00077 -6.375 -6.53604 
5240 3 -1.90096 -7.08065 -7.08336 
8840 4 -0.677831 -7.08245 -6.55786 
383 1 -0.046877 -7.08182 -7.0846 
1661 3 -0.596418 -6.61646 -7.08127 
1848 3 -0.125321 -6.60914 -6.53765 
2752 3 -0.191453 -7.07921 -6.00996 
2880 3 0.42553 -7.0843 -6.40531 
6857 4 -0.561189 -6.48468 -5.95461 
9548 5 0.315595 -6.45753 -7.08196 
202 1 0.903349 -6.59214 -5.94935 
1342 2 1.43027 -7.08336 -7.08168 
2894 3 1.56599 -6.50338 -6.64195 
4410 3 0.753125 -6.18293 -6.54101 
4526 3 1.89167 -7.08481 -6.52283 
4582 3 0.691711 -7.08279 -7.08326 
6834 4 1.62453 -6.75531 -5.96331 
8879 4 1.16054 -7.08244 -6.4205 
9902 5 1.04961 -6.45712 -7.08439 
340 1 3.26945 -7.08015 -7.08304 
1318 2 2.54394 -6.19467 -6.9979 
1698 3 2.0839 -6.75299 -7.08076 
2252 3 2.98922 -6.39695 -6.44048 
2644 3 3.22323 -6.38847 -7.07691 
3148 3 2.61701 -7.08259 -6.74617 
4993 3 3.13257 -7.08127 -6.21898 
8520 4 2.26846 -6.53321 -6.41284 
9345 5 2.37947 -7.07991 -5.97345 
1336 2 3.94484 -6.47074 -7.0804 
1562 3 4.14099 -6.47784 -6.40717 
4756 3 4.5026 -7.08012 -6.37898 
5176 3 4.30945 -7.08116 -7.08336 
5228 3 3.54733 -6.54585 -5.98333 
7665 4 3.78525 -7.0824 -6.56839 
9709 5 4.68238 -6.4688 -7.08377 
2934 3 5.69258 -7.08 -6.16065 
4110 3 5.05128 -7.08105 -7.08094 
5674 3 5.13472 -6.75842 -6.47504 
8472 4 5.41615 -6.4634 -7.08286 
9298 5 5.87653 -6.49897 -6.52322 
9310 5 5.79244 -7.08233 -7.08178 
836 2 7.08479 -6.50527 -6.8611 
2155 3 7.08461 -7.0822 -6.4181 
3181 3 7.07738 -6.08734 -6.26536 
6898 4 6.81303 -7.08396 -7.08382 
7541 4 6.3205 -7.08355 -6.55788 
8410 4 6.52235 -6.49171 -6.17365 
9035 5 6.32394 -6.58925 -7.08186 
2435 3 -7.08106 -5.36726 -6.46771 
3251 3 -6.48419 -5.82431 -6.50744 
4342 3 -6.45477 -5.44135 -7.07683 
4480 3 -7.08248 -5.00242 -7.08197 
9074 5 -7.07928 -5.74477 -7.0821 
9595 5 -6.47178 -5.0238 -6.537 
1530 3 -5.04716 -5.87796 -6.79555 
3718 3 -5.85895 -5.48229 -6.7151 
5380 3 -5.29876 -5.28243 -7.07702 
5701 3 -5.82636 -6.05445 -6.24904 
5821 3 -5.31251 -4.8767 -6.53523 
6990 4 -5.31039 -5.53067 -6.20202 
7882 4 -4.76886 -5.02095 -6.06016 
8278 4 -5.68409 -6.06679 -7.07938 
8816 4 -5.88286 -5.06843 -6.12065 
1406 2 -4.05468 -5.19026 -6.38378 
1527 3 -3.96598 -5.97506 -6.51146 
1891 3 -3.40264 -5.38012 -6.10126 
2018 3 -4.66735 -5.14808 -6.78579 
2327 3 -4.59249 -5.70795 -6.24108 
3192 3 -3.99196 -5.06287 -7.08179 
7150 4 -3.59538 -5.75919 -7.08123 
7832 4 -4.37514 -5.75761 -7.08374 
8895 4 -3.39564 -4.74739 -6.48068 
66 1 -2.7934 -5.37726 -6.50281 
1505 3 -3.22178 -5.97977 -6.50778 
2813 3 -3.24885 -5.11145 -7.0821 
4109 3 -2.07677 -5.22524 -6.54924 
6240 4 -2.08958 -5.7212 -7.08336 
6577 4 -2.51147 -5.11712 -7.07813 
6795 4 -2.25999 -5.92449 -6.40041 
8461 4 -2.8268 -5.79029 -7.08139 
1807 3 -1.53056 -5.85483 -6.51061 
2381 3 -1.36231 -5.14299 -6.43813 
3610 3 -0.889329 -5.94832 -7.08127 
8087 4 -1.85604 -4.77652 -7.08298 
8723 4 -0.726746 -4.79711 -6.49383 
8905 4 -0.815101 -5.62232 -6.49257 
9276 5 -1.11996 -4.75766 -7.08108 
9515 5 -1.41536 -5.4326 -7.08099 
973 2 -0.336492 -5.7872 -5.96807 
1452 2 0.451962 -5.73371 -7.04875 
2111 3 -0.166488 -5.27629 -6.47824 
2357 3 -0.575578 -5.27204 -7.0829 
6210 4 0.50275 -4.95933 -6.429 
7226 4 0.35419 -5.70245 -6.17499 
7632 4 -0.222562 -5.93168 -6.81763 
9371 5 0.139655 -5.06936 -7.08046 
50 1 1.70836 -5.56993 -6.6193 
893 2 1.50409 -4.86765 -6.49946 
3829 3 0.887095 -5.0423 -7.08245 
4976 3 1.36983 -6.03805 -6.11749 
5466 3 1.00076 -5.49112 -6.44897 
5955 3 1.18477 -5.72375 -7.07981 
9034 5 1.83856 -6.05963 -7.07616 
9516 5 1.95828 -4.87851 -7.08424 
673 2 2.7185 -5.01018 -6.72534 
2209 3 3.34085 -4.87443 -7.08245 
2753 3 3.34575 -5.33553 -6.51754 
2921 3 3.05347 -5.66663 -7.0816 
3250 3 2.70382 -5.71187 -6.45388 
6675 4 3.32813 -5.82147 -5.97145 
7000 4 2.20681 -5.20372 -6.2383 
9687 5 2.09404 -5.91178 -6.08632 
9733 5 2.32753 -5.50708 -7.08246 
3285 3 4.67319 -5.28846 -6.38972 
3485 3 4.62783 -5.32869 -7.07909 
4599 3 4.26143 -4.82977 -5.98009 
4991 3 4.30614 -5.89859 -6.8201 
7607 4 3.60014 -6.02364 -6.63025 
7890 4 3.77253 -5.47739 -7.08182 
8144 4 4.00122 -5.54344 -6.24859 
8219 4 3.94925 -4.92253 -6.64517 
9695 5 4.63448 -5.98863 -6.16443 
129 1 5.29805 -6.04834 -6.48077 
515 2 5.25313 -4.92322 -7.08206 
2596 3 5.25303 -5.70925 -7.07874 
2688 3 5.93815 -5.07098 -5.99609 
3409 3 5.94743 -5.95183 -7.08082 
5411 3 5.82594 -5.81833 -6.01228 
6793 4 5.39699 -5.32936 -6.50947 
9466 5 5.98916 -4.94072 -7.08231 
805 2 7.08377 -4.75897 -7.06466 
1583 3 7.08383 -5.41564 -6.55469 
1817 3 7.08479 -5.83671 -7.08481 
4187 3 6.55027 -6.01524 -6.70965 
6938 4 6.40038 -4.78547 -6.50486 
7274 4 6.61467 -5.32179 -7.08085 
8088 4 7.08003 -4.73208 -6.3216 
8591 4 6.11057 -5.45815 -6.59232 
9434 5 6.55195 -5.69282 -6.04949 
922 2 -6.98662 -3.89304 -6.46107 
3890 3 -7.08164 -3.52532 -7.08321 
4138 3 -6.38687 -3.39884 -6.39665 
4650 3 -6.46575 -3.89195 -7.08163 
6721 4 -6.3473 -4.29099 -6.50365 
7097 4 -6.46948 -4.62166 -7.08167 
9087 5 -7.08274 -4.62735 -6.46065 
9368 5 -7.08144 -4.26103 -7.08264 
941 2 -5.60949 -4.20272 -6.53538 
4296 3 -5.01003 -4.5994 -7.08031 
4621 3 -5.73446 -3.81162 -7.07674 
5068 3 -5.22253 -4.44601 -5.95023 
5387 3 -5.74068 -4.66966 -7.08277 
6460 4 -4.99655 -3.86053 -7.08343 
7810 4 -5.04456 -3.80649 -6.27102 
9777 5 -5.65383 -3.46054 -6.50242 
732 2 -4.4124 -3.78273 -6.6455 
2194 3 -4.30816 -4.36058 -7.08263 
3043 3 -3.50991 -3.49198 -6.025 
6066 4 -4.72218 -4.43142 -6.49102 
6380 4 -3.57669 -4.44738 -7.07865 
6517 4 -3.52727 -4.0184 -6.53253 
9266 5 -4.24811 -3.50943 -5.98797 
9498 5 -4.03334 -4.46327 -6.24774 
9598 5 -3.86775 -3.76362 -7.07803 
464 1 -2.86156 -4.5001 -6.93646 
4416 3 -2.7039 -4.69521 -6.24118 
4634 3 -2.20785 -4.31939 -6.63448 
5986 3 -2.39792 -3.79231 -7.08171 
7586 4 -2.8015 -3.9081 -6.49261 
7729 4 -3.13659 -3.84931 -7.07792 
8352 4 -2.21608 -3.52209 -6.31588 
551 2 -0.826785 -3.48567 -6.52729 
572 2 -1.99075 -4.70286 -6.04125 
4155 3 -0.943643 -4.05091 -6.99514 
4700 3 -1.52621 -3.704 -6.50482 
5447 3 -1.70529 -4.04953 -7.07861 
8477 4 -1.49207 -4.43982 -6.5434 
8662 4 -1.25833 -3.39378 -7.07936 
9805 5 -0.915301 -4.14393 -6.21056 
825 2 -0.434931 -3.52925 -7.07765 
1940 3 0.339117 -3.99735 -6.21832 
2679 3 -0.32174 -4.0159 -6.61253 
6438 4 -0.092501 -4.58769 -6.21321 
7247 4 -0.408271 -4.5514 -7.08063 
8128 4 0.240403 -3.62718 -6.88037 
8444 4 0.257285 -4.39932 -6.8378 
458 1 0.814147 -3.48892 -6.44237 
611 2 1.37573 -3.77739 -6.82434 
1931 3 2.0211 -3.88972 -7.0776 
2737 3 1.35641 -4.46538 -7.08225 
3199 3 0.781494 -4.01237 -7.0778 
5179 3 0.921215 -4.35422 -6.51038 
7295 4 1.49634 -4.05292 -6.16115 
1720 3 3.25731 -4.61669 -6.41123 
1796 3 2.68025 -3.57071 -7.07878 
1872 3 2.58928 -4.59084 -6.11472 
3540 3 2.17422 -3.80612 -6.0854 
4997 3 3.25524 -3.48479 -6.68264 
5251 3 2.74727 -4.00631 -6.53125 
6377 4 2.5331 -4.4147 -7.08064 
8559 4 3.20449 -4.12197 -7.08218 
8731 4 2.03899 -4.35517 -6.56832 
761 2 4.44588 -3.89324 -7.08341 
5589 3 3.89714 -4.38615 -7.08026 
5973 3 3.7727 -3.65452 -7.08482 
7939 4 4.59209 -4.60957 -7.0785 
8136 4 4.35952 -4.32134 -6.49872 
9185 5 3.44754 -3.64489 -5.98482 
9358 5 4.1641 -3.74361 -6.09662 
9483 5 3.68001 -4.0433 -6.53838 
335 1 4.94755 -4.63706 -6.19595 
674 2 4.8777 -3.91759 -6.03439 
762 2 5.03898 -4.16921 -6.74861 
7182 4 5.06937 -3.52142 -7.08308 
7239 4 5.62282 -4.64786 -6.50375 
7648 4 5.64327 -4.29356 -7.08029 
7870 4 5.79741 -3.58577 -7.07967 
8621 4 5.41626 -3.62062 -6.44814 
9209 5 6.01886 -4.0285 -6.56294 
9760 5 5.55814 -4.17596 -5.95284 
1015 2 6.50276 -3.62088 -6.94877 
1075 2 6.42252 -4.34302 -7.08248 
7682 4 6.74442 -4.12887 -6.46994 
9830 5 7.08181 -4.01935 -7.08209 
9841 5 6.42842 -3.52121 -6.21726 
1259 2 -6.47441 -2.03947 -6.46904 
2828 3 -7.08168 -2.79046 -7.08322 
4358 3 -7.08087 -2.41742 -6.45963 
4482 3 -6.46682 -2.42691 -7.08308 
5599 3 -7.08167 -2.05089 -7.08246 
6941 4 -6.51289 -2.70926 -6.14826 
7063 4 -6.46158 -3.16073 -7.08286 
9986 5 -7.08455 -3.15548 -6.45381 
1670 3 -5.85381 -3.02526 -5.94814 
2007 3 -4.7968 -2.33976 -6.11408 
2119 3 -5.74642 -2.29058 -7.08176 
3057 3 -6.00169 -2.80851 -6.64324 
4737 3 -4.76582 -2.59512 -7.08347 
5027 3 -4.97995 -3.22638 -6.7122 
6080 4 -5.555 -3.09251 -7.07665 
6322 4 -5.11495 -3.00104 -6.01684 
7157 4 -5.89836 -2.30654 -6.10682 
8017 4 -5.30609 -2.57496 -6.58969 
1969 3 -3.65692 -2.80538 -6.26409 
3094 3 -4.36635 -2.94239 -6.43419 
3439 3 -4.36498 -3.2174 -7.07984 
6281 4 -3.38045 -2.13252 -6.41155 
7191 4 -3.65423 -2.0386 -7.08349 
8704 4 -3.43004 -3.31219 -6.74036 
8867 4 -4.10042 -2.2704 -6.51117 
9664 5 -3.78171 -2.76418 -7.08401 
330 1 -3.08533 -2.50176 -7.08397 
2259 3 -2.10542 -2.81105 -6.47371 
4443 3 -2.80735 -3.18307 -7.07913 
5059 3 -2.67378 -2.33665 -6.49621 
7163 4 -2.34657 -2.54642 -7.07977 
9333 5 -2.82288 -3.04616 -6.40778 
471 1 -1.96959 -3.18709 -7.08322 
748 2 -0.95266 -2.15948 -7.08376 
1055 2 -1.64613 -3.16583 -6.02204 
1092 2 -1.60933 -2.49976 -7.08285 
4939 3 -0.718838 -2.92651 -6.06601 
4994 3 -1.98084 -2.09726 -6.59685 
5242 3 -0.896443 -2.28512 -6.36237 
6310 4 -1.57303 -2.44161 -6.10893 
8852 4 -0.714868 -2.85322 -7.08367 
9977 5 -1.25359 -2.89294 -6.58477 
289 1 0.04199 -2.96052 -7.08002 
685 2 0.574874 -2.44645 -7.08315 
1830 3 -0.138553 -3.30084 -6.34026 
2205 3 -0.214788 -2.06898 -7.06479 
5174 3 0.431441 -2.85602 -6.49172 
6450 4 0.286546 -2.12113 -6.49461 
7175 4 -0.272211 -2.11086 -6.00813 
8418 4 -0.265177 -2.60864 -6.55457 
1263 2 1.93466 -2.08527 -7.08306 
2196 3 0.774006 -3.16002 -7.08235 
2817 3 1.19718 -2.04264 -7.08184 
3747 3 0.985318 -2.36923 -6.48244 
5087 3 1.67031 -2.58408 -6.6211 
6467 4 1.49724 -3.24579 -6.33195 
7270 4 1.51455 -3.1131 -7.0815 
552 2 2.85344 -2.89951 -6.86708 
1433 2 2.11078 -3.0745 -5.97011 
2799 3 2.15671 -3.34295 -6.65573 
4405 3 3.09313 -2.32323 -6.46487 
4578 3 2.17588 -2.77879 -7.07917 
5042 3 2.66556 -2.22075 -7.08354 
5706 3 2.38187 -2.51487 -6.45944 
6439 4 2.74491 -3.35004 -6.19417 
931 2 4.06684 -2.59569 -6.28182 
1753 3 3.94622 -3.24706 -6.57278 
5762 3 4.50125 -2.05449 -6.54515 
6466 4 4.43442 -3.15101 -7.0792 
6653 4 3.40652 -2.21938 -7.0791 
6925 4 4.11534 -2.49982 -7.01368 
7005 4 4.67127 -3.3502 -6.45586 
7236 4 3.54064 -2.94875 -7.08056 
7914 4 3.38846 -2.94355 -6.20787 
1493 2 5.27667 -2.16564 -6.43618 
1900 3 6.07261 -2.46151 -6.26402 
2575 3 5.9324 -3.11311 -6.5809 
2643 3 4.75612 -2.5157 -6.04135 
5870 3 5.49049 -2.19447 -7.07789 
7703 4 5.24816 -2.90186 -6.42513 
8706 4 4.85198 -2.55227 -6.97052 
9023 5 5.47759 -2.91997 -7.07908 
688 2 7.07574 -2.56132 -6.37159 
745 2 7.07845 -3.27686 -7.08171 
1139 2 6.60153 -2.18058 -6.7016 
1652 3 7.07934 -3.30925 -6.36242 
2307 3 7.08184 -2.53645 -7.08105 
3169 3 6.61442 -2.92341 -6.71737 
4244 3 6.68239 -2.17618 -5.95213 
9472 5 6.12352 -2.55951 -7.08052 
63 1 -6.4644 -1.69041 -7.07914 
2038 3 -6.45603 -0.948482 -7.08302 
2146 3 -7.08246 -1.3117 -7.08242 
2867 3 -7.07858 -0.936359 -6.46192 
5254 3 -6.69173 -1.29075 -5.99514 
6678 4 -7.08049 -1.67695 -6.45864 
8321 4 -6.20277 -1.35321 -6.53169 
2108 3 -5.08814 -1.18925 -7.08289 
2773 3 -5.45939 -1.85963 -6.48553 
2913 3 -5.10314 -1.93181 -7.08022 
3453 3 -5.73098 -0.817166 -7.079 
4254 3 -4.85587 -0.829394 -6.49313 
7300 4 -5.73813 -1.55116 -7.08325 
7308 4 -6.07304 -0.870557 -5.98686 
9989 5 -5.51606 -1.12543 -6.49271 
1084 2 -4.30186 -1.11119 -6.12481 
3895 3 -4.70484 -1.56617 -6.58589 
4105 3 -3.86253 -0.841021 -6.64227 
4477 3 -3.63168 -0.864461 -5.93941 
4588 3 -4.29563 -1.82308 -5.95718 
6535 4 -4.37745 -1.96455 -7.0801 
8127 4 -3.55872 -1.31118 -7.07881 
8434 4 -4.29372 -1.23164 -7.08256 
9810 5 -3.8814 -1.57115 -6.52019 
4246 3 -3.21862 -1.16499 -6.4796 
4622 3 -2.67468 -1.10924 -7.08415 
4951 3 -3.00482 -1.74405 -6.90532 
8471 4 -2.27211 -0.839465 -6.01107 
9277 5 -2.7818 -1.685 -6.20029 
9503 5 -2.31446 -1.75408 -7.07746 
9778 5 -2.18066 -1.3914 -6.49603 
1470 2 -0.756366 -1.45136 -7.08308 
4292 3 -1.16725 -1.63578 -6.50992 
4528 3 -0.793429 -1.00587 -6.50213 
4986 3 -1.25339 -0.907338 -7.08152 
6096 4 -1.9442 -1.11796 -7.0778 
6239 4 -1.7144 -1.7197 -6.02278 
8165 4 -1.57321 -1.75713 -7.08099 
9995 5 -1.5451 -1.01532 -6.43854 
600 2 -0.087318 -0.720417 -6.5338 
1595 3 0.527742 -1.09051 -6.70483 
1638 3 -0.072369 -1.18821 -7.08113 
3799 3 -0.306659 -1.56868 -6.51515 
5075 3 0.44099 -1.71866 -7.08333 
8298 4 0.18642 -1.22629 -6.07443 
3413 3 2.02007 -1.1062 -6.27958 
5456 3 1.23869 -1.04174 -6.48751 
6300 4 1.50307 -0.726439 -7.08246 
6431 4 0.712266 -0.702369 -6.1072 
7483 4 1.05811 -1.31978 -7.07778 
7511 4 0.846532 -1.65481 -6.35518 
7555 4 1.54673 -1.89649 -6.3673 
8862 4 1.73827 -1.4044 -6.89122 
1411 2 3.36318 -1.61307 -6.06088 
1861 3 2.92888 -1.01065 -7.08185 
2029 3 2.22487 -0.814368 -7.08203 
5809 3 2.2712 -1.78245 -6.46353 
5822 3 3.34442 -1.01813 -6.49826 
7755 4 2.96491 -1.63225 -6.67738 
7760 4 2.71846 -1.25507 -6.09255 
8243 4 2.41218 -1.52807 -7.07668 
318 1 4.13554 -1.10626 -6.86041 
849 2 3.52184 -1.43224 -7.08148 
1064 2 4.61683 -0.905218 -6.34139 
5296 3 3.58844 -0.675107 -7.08123 
5713 3 4.15524 -1.78334 -7.07734 
7770 4 3.96957 -1.19622 -6.14823 
9458 5 3.77031 -1.97353 -6.53749 
10000 5 4.65106 -1.65515 -5.94522 
1559 3 5.84965 -1.18108 -6.47543 
2825 3 4.8799 -1.81843 -7.07886 
3459 3 4.8378 -1.08802 -7.08162 
3518 3 6.07219 -1.77704 -5.96082 
4085 3 5.52568 -1.42892 -7.08222 
4485 3 5.27761 -0.755602 -6.61915 
4519 3 5.907 -0.792902 -7.08291 
8113 4 5.93903 -1.87255 -6.67714 
9346 5 5.07916 -1.46094 -6.51511 
33 1 7.08036 -1.11105 -6.18408 
1694 3 6.46591 -0.737304 -6.31867 
1725 3 7.08466 -1.82846 -6.3839 
4153 3 7.08271 -1.06082 -7.05172 
4202 3 6.29106 -1.41185 -7.08479 
9221 5 7.08469 -1.79657 -7.08037 
9517 5 6.51832 -1.4621 -6.44199 
1133 2 -6.51134 -0.537547 -6.48137 
1662 3 -7.08473 0.147644 -7.0801 
3898 3 -6.84968 0.602349 -6.43631 
6277 4 -6.47653 0.444666 -7.06513 
7085 4 -6.25629 0.154765 -6.42142 
7655 4 -7.08341 -0.572738 -7.08238 
8378 4 -7.08266 -0.094677 -6.43551 
9856 5 -6.2049 -0.247848 -7.08404 
505 2 -5.46657 -0.13463 -7.08161 
2109 3 -4.91223 -0.112887 -6.62382 
3168 3 -5.78486 -0.426428 -6.50394 
3486 3 -5.28125 -0.26459 -5.9977 
4826 3 -5.06881 0.484094 -7.02546 
7001 4 -5.52665 0.266612 -6.48322 
9513 5 -5.78434 0.528957 -7.07945 
9753 5 -4.85431 0.331057 -6.0433 
379 1 -3.77566 0.332156 -6.77898 
4865 3 -3.8724 -0.306268 -7.07736 
5383 3 -3.47278 -0.276839 -6.36358 
5793 3 -4.14171 0.470977 -6.16556 
7241 4 -4.41974 0.170635 -7.08277 
8104 4 -4.57306 -0.550807 -7.08083 
8216 4 -4.19684 -0.197942 -6.47894 
25 1 -2.2294 0.136018 -6.51761 
3528 3 -2.95292 0.229807 -6.48441 
3565 3 -3.24695 -0.662821 -7.01822 
3702 3 -2.58694 0.406164 -7.08164 
5258 3 -2.59407 -0.33206 -7.07954 
5273 3 -2.79418 -0.556849 -6.44378 
5846 3 -2.08442 -0.573968 -6.66476 
8864 4 -3.22452 0.049701 -7.07782 
618 2 -1.53943 0.336728 -6.39555 
2071 3 -1.13849 -0.585993 -5.99363 
5522 3 -1.92449 0.668437 -6.93094 
5667 3 -0.825622 0.440768 -6.50408 
5829 3 -1.87961 -0.045093 -7.07765 
8713 4 -1.80441 -0.269573 -6.05789 
8995 4 -1.38242 -0.329947 -6.66667 
9985 5 -1.26908 0.368091 -7.08304 
1105 2 -0.589506 0.086103 -7.08105 
2526 3 0.469974 -0.176018 -6.55862 
4461 3 0.084958 0.373697 -7.08139 
4844 3 -0.131696 0.217935 -6.414 
4969 3 0.082429 -0.361162 -7.08198 
5235 3 -0.577287 -0.650039 -7.08132 
6148 4 0.512165 0.559349 -6.54026 
9121 5 0.105757 -0.319553 -5.93884 
9479 5 -0.673297 -0.278918 -6.47557 
31 1 1.90963 -0.429012 -6.55575 
247 1 1.52249 0.014866 -7.08161 
1982 3 1.96952 0.605727 -7.08296 
1983 3 1.18443 -0.30412 -6.53205 
5946 3 1.51294 -0.61803 -5.95632 
6701 4 0.79574 -0.546253 -7.08041 
8989 4 1.23973 0.424198 -6.55399 
9036 5 0.802253 0.191823 -7.08079 
9091 5 1.52571 0.113769 -5.99021 
577 2 2.25564 -0.07516 -7.08256 
3310 3 2.96124 -0.278338 -7.08242 
4134 3 2.74874 0.063066 -6.47522 
6233 4 3.23708 -0.380385 -6.14445 
7059 4 2.70499 0.512204 -7.07333 
7358 4 2.64375 -0.660934 -6.51569 
9573 5 2.07986 0.351649 -6.41194 
2081 3 4.42435 -0.484598 -7.08055 
3798 3 4.11861 0.164229 -6.02847 
4029 3 4.60742 -0.178536 -6.4697 
5758 3 4.05481 0.144524 -7.08134 
6454 4 4.42583 0.525829 -6.59629 
6578 4 3.40978 0.196467 -6.77292 
7140 4 3.3778 0.339245 -6.05733 
9500 5 3.88514 -0.322 -6.53586 
1065 2 5.39381 -0.27487 -7.08145 
2756 3 5.48297 0.515463 -7.07855 
3193 3 4.83171 0.370661 -6.02435 
4216 3 5.87707 -0.33328 -6.51183 
4262 3 5.27998 0.11595 -6.5405 
4467 3 6.02397 0.51456 -6.62842 
4984 3 5.73334 0.281487 -5.99628 
5079 3 4.79655 0.149881 -7.08144 
8658 4 5.3507 -0.376321 -5.99931 
1209 2 6.50295 0.602983 -6.08195 
1447 2 6.57752 0.019986 -6.5994 
2006 3 7.08216 0.014869 -7.07993 
5981 3 7.08186 0.54169 -6.60073 
8425 4 6.59446 -0.526764 -7.08234 
8912 4 7.08056 -0.489613 -6.57983 
9619 5 6.07773 -0.002349 -7.07682 
9632 5 6.58218 0.545294 -7.08008 
639 2 -6.49918 1.53906 -6.62758 
1099 2 -7.07967 0.891066 -7.08236 
1323 2 -7.07989 2.00626 -6.48584 
1718 3 -7.08338 1.63259 -7.07996 
2182 3 -6.21893 1.10683 -7.08479 
2837 3 -7.08477 1.24272 -6.46147 
6705 4 -6.16573 0.889688 -6.43565 
275 1 -5.01685 1.49657 -6.4617 
2666 3 -5.89146 1.6429 -6.34741 
3490 3 -5.02554 1.90769 -7.08114 
3710 3 -4.92507 1.18875 -7.07842 
6819 4 -5.5774 1.15638 -6.79944 
7692 4 -5.76234 1.81613 -7.08451 
9134 5 -5.30618 0.891554 -6.16481 
661 2 -4.65996 0.852728 -6.52745 
824 2 -4.25558 0.885826 -7.07656 
962 2 -4.33297 1.62439 -7.08314 
1393 2 -3.76432 1.04527 -6.63861 
2219 3 -4.28927 1.47765 -6.36815 
2490 3 -3.53653 1.65918 -6.31023 
4398 3 -3.59229 1.56947 -7.07997 
1374 2 -2.03503 1.81549 -5.96248 
1421 2 -2.99602 1.37613 -6.72478 
2335 3 -2.51082 0.816373 -6.48529 
2754 3 -2.24787 1.51084 -6.57079 
6594 4 -2.61413 1.87143 -7.081 
6971 4 -2.87413 1.51151 -6.00687 
8458 4 -2.46517 1.12756 -7.0848 
9178 5 -3.24253 0.786815 -7.08331 
9522 5 -3.1941 0.878299 -6.22616 
150 1 -1.75945 1.35827 -7.08065 
964 2 -0.702994 0.852113 -7.08181 
2215 3 -1.0579 1.58871 -7.08153 
2989 3 -1.29779 0.979223 -6.68293 
3920 3 -0.688551 1.35463 -6.52071 
4534 3 -1.52389 1.65159 -6.4734 
7153 4 -1.85868 0.998747 -6.21001 
91 1 -0.211179 1.91467 -6.47434 
350 1 -0.118133 0.917888 -6.65477 
2708 3 0.229582 1.98645 -7.08274 
3407 3 -0.482604 0.863412 -6.014 
3608 3 0.339824 1.95253 -5.9929 
3689 3 0.449363 1.01151 -7.07936 
6475 4 -0.283501 1.46278 -7.07951 
7248 4 0.24134 1.0089 -6.01562 
9060 5 0.35865 1.48179 -6.56847 
171 1 0.870127 1.61911 -7.08103 
2449 3 1.0233 1.1911 -6.52548 
3548 3 1.58373 1.67072 -6.46703 
3934 3 1.50545 1.99239 -7.07821 
5018 3 1.67682 0.957075 -6.29017 
5224 3 0.927658 0.731727 -5.9686 
6874 4 1.16826 0.838275 -7.08479 
7359 4 1.73246 1.29893 -7.08367 
8099 4 0.907494 1.95904 -6.45392 
328 1 2.76688 1.33257 -7.07625 
958 2 2.28996 1.10572 -6.64792 
4320 3 2.90371 0.777943 -6.40791 
4501 3 2.33497 0.879769 -5.9446 
4668 3 2.21027 1.59185 -6.09197 
4849 3 2.90972 1.39712 -5.99784 
6527 4 3.36641 0.834094 -7.07773 
6585 4 3.20205 1.92952 -7.08181 
6934 4 3.28889 1.35787 -6.63611 
7375 4 2.23182 1.84204 -7.08193 
7582 4 2.72665 1.83662 -6.55675 
163 1 4.47868 2.02068 -6.43108 
1507 3 4.56694 1.57414 -7.08104 
2678 3 3.74879 0.796225 -6.49912 
2762 3 4.10445 0.878628 -7.07682 
2871 3 4.64134 1.22037 -6.47499 
4190 3 3.82457 1.54426 -7.08039 
5250 3 3.96653 1.50449 -6.39101 
8637 4 3.37995 1.92728 -6.21666 
811 2 6.06668 1.06935 -7.08151 
1977 3 5.78999 1.60512 -6.48304 
2358 3 5.88141 0.999853 -6.09584 
2890 3 4.83964 0.883077 -7.0826 
6437 4 5.20539 1.43406 -6.05805 
6492 4 5.86847 1.98654 -7.0818 
8573 4 5.39838 1.35831 -7.08114 
8796 4 5.14562 1.88943 -6.68056 
9818 5 5.28044 0.849465 -6.50133 
1376 2 6.54549 1.16909 -6.55033 
3596 3 7.08252 1.05279 -6.07359 
6830 4 6.55346 1.6192 -7.07791 
7072 4 7.08358 1.67942 -6.46863 
7534 4 6.41723 1.9865 -6.51497 
9970 5 7.0843 1.10532 -7.08461 
1682 3 -7.08032 2.38349 -7.0799 
2493 3 -6.25068 3.16639 -6.49062 
3666 3 -6.45108 2.77655 -7.08116 
3886 3 -6.46641 2.05824 -7.08479 
4421 3 -6.45207 2.10152 -6.19786 
4820 3 -7.07971 3.29045 -6.29164 
5178 3 -7.08216 3.11634 -7.02563 
8264 4 -6.80279 2.66927 -6.51271 
557 2 -5.42034 2.53235 -7.08013 
1697 3 -6.01658 2.40149 -6.70517 
4397 3 -5.81803 3.15706 -7.08376 
7841 4 -4.99286 2.7734 -6.49082 
8613 4 -5.3695 2.13487 -6.50169 
8970 4 -5.42912 3.36729 -6.46742 
9088 5 -5.07204 3.179 -7.08137 
9137 5 -5.73333 2.77001 -6.14573 
2792 3 -3.91655 2.11932 -6.74496 
2802 3 -3.86434 2.79028 -5.94256 
3685 3 -3.81521 2.73078 -7.07627 
4285 3 -4.67641 2.55402 -7.0791 
4432 3 -4.06007 2.08632 -6.02109 
6112 4 -4.25787 2.74747 -6.5598 
6518 4 -4.53116 3.15868 -6.02301 
7988 4 -4.62728 2.1192 -6.52242 
8994 4 -4.33282 3.24948 -7.08184 
9317 5 -3.43153 2.63578 -6.52589 
9883 5 -3.77512 3.28508 -6.48105 
834 2 -3.21564 3.12976 -6.01903 
2104 3 -2.02511 3.06591 -6.51083 
2145 3 -2.95333 2.07188 -6.48256 
2826 3 -2.41104 3.32824 -7.08404 
3733 3 -3.1141 2.95552 -7.08042 
3783 3 -3.26764 2.23137 -7.07925 
5960 3 -2.71489 2.80593 -6.44739 
7056 4 -2.25354 2.24003 -6.51452 
9096 5 -2.4722 2.59456 -7.08024 
302 1 -1.5538 2.45708 -6.51722 
475 1 -1.52181 3.25123 -6.00102 
1300 2 -0.997827 2.743 -6.12529 
1519 3 -1.90057 2.07519 -7.07907 
2141 3 -0.729065 2.87003 -7.0819 
3441 3 -1.20373 2.31129 -7.07805 
3537 3 -1.28252 3.1244 -6.68749 
7858 4 -1.76236 2.80009 -7.07688 
8820 4 -0.921253 2.08413 -6.49824 
16 1 0.576228 3.23434 -7.07691 
388 1 0.010047 2.75153 -7.07958 
1013 2 0.083199 3.26487 -6.59405 
2241 3 -0.628242 3.30852 -6.41658 
3472 3 -0.482603 2.17649 -7.08197 
7576 4 0.360491 2.45275 -6.54348 
8493 4 -0.375103 2.62511 -6.50487 
9895 5 0.473495 3.22664 -5.97192 
224 1 0.775429 2.54686 -5.93991 
4272 3 1.80474 2.75413 -6.07021 
4286 3 1.4083 2.47209 -6.59669 
5397 3 1.29855 2.95161 -7.07686 
6357 4 1.94506 2.58562 -7.08293 
6554 4 1.82157 3.18236 -6.6748 
7668 4 0.882626 2.97988 -6.52946 
7723 4 0.861622 2.36167 -7.08457 
1260 2 2.66658 2.43126 -6.99489 
1863 3 3.03212 3.08865 -6.00567 
2673 3 2.44337 2.86315 -6.43176 
2967 3 2.44939 3.12321 -7.07893 
6612 4 2.093 2.21085 -6.47664 
7764 4 2.81378 2.36505 -6.04547 
9320 5 3.36468 2.64503 -7.07848 
9590 5 3.06798 3.1746 -6.72781 
1141 2 3.73742 3.29858 -6.42166 
1736 3 4.06751 2.86969 -7.08023 
4267 3 3.44956 2.62861 -6.39413 
5023 3 4.22628 2.7156 -6.41876 
7480 4 4.7125 3.26432 -6.41401 
7681 4 4.55978 2.31148 -7.08212 
8126 4 3.87948 2.21092 -6.8253 
2300 3 4.94319 2.58401 -6.51667 
3492 3 5.37805 3.19634 -6.7089 
3885 3 5.29053 2.44385 -7.08063 
4146 3 5.80528 2.41034 -6.5043 
4217 3 5.89647 2.85099 -7.08309 
4748 3 5.26204 2.9069 -5.94051 
6189 4 5.87741 3.21121 -6.18215 
6645 4 5.2943 2.16573 -6.02477 
7782 4 4.79819 3.00499 -7.08079 
1413 2 7.06425 3.19888 -6.45882 
3357 3 6.50843 3.2476 -7.07818 
4510 3 6.40627 2.84598 -6.53891 
5008 3 7.08433 2.43203 -6.44812 
5292 3 6.53151 2.43679 -5.95638 
6074 4 7.07789 2.06833 -7.08321 
7417 4 7.08261 2.80816 -7.08406 
9168 5 6.48048 2.40245 -7.07964 
952 2 -7.0786 3.8489 -7.08105 
4424 3 -6.47671 3.50209 -7.08156 
6311 4 -6.11929 4.13365 -7.08099 
6794 4 -6.37209 4.51004 -6.53369 
7728 4 -6.71338 3.86346 -6.50639 
8876 4 -6.82742 4.51838 -7.08076 
9461 5 -7.08209 4.48657 -6.42362 
1347 2 -5.4584 3.80554 -7.07043 
3085 3 -4.90227 3.79561 -5.94076 
4648 3 -5.82209 4.47023 -6.06077 
4990 3 -5.50816 4.54306 -7.08182 
5082 3 -4.74133 3.60539 -6.61372 
7440 4 -5.2626 4.18621 -6.46197 
9816 5 -4.8054 4.15658 -7.08225 
9953 5 -5.9788 3.85594 -6.43733 
201 1 -3.47819 3.93657 -6.35397 
496 1 -3.6158 4.3767 -7.07761 
1086 2 -4.136 3.92941 -6.87803 
2636 3 -4.28307 4.6942 -7.08343 
4857 3 -3.53359 3.5653 -7.08076 
5883 3 -4.18948 3.79639 -6.15133 
8814 4 -3.90727 4.52333 -6.47604 
9745 5 -4.58837 4.41346 -6.19965 
854 2 -2.71842 3.70704 -5.98174 
989 2 -2.60155 4.67478 -7.0842 
7403 4 -2.49099 4.25621 -6.4249 
7452 4 -2.96516 4.03494 -7.08215 
8337 4 -3.14486 4.54708 -6.59624 
8371 4 -2.97045 3.47684 -6.62622 
9796 5 -2.23069 4.04272 -7.08438 
950 2 -1.69937 3.53889 -7.07982 
1296 2 -1.1832 3.78923 -6.37325 
1363 2 -1.62021 4.44966 -7.08136 
6089 4 -1.08271 3.9499 -7.084 
7276 4 -1.53725 4.44049 -6.37612 
7966 4 -1.91577 3.79702 -6.46171 
9967 5 -0.804649 4.40524 -6.49318 
3846 3 -0.219471 4.43576 -5.96755 
6012 4 0.187744 3.8652 -7.08311 
6567 4 0.347987 4.34574 -6.46466 
6902 4 -0.423646 4.28992 -7.08071 
7981 4 -0.467784 3.54896 -7.08274 
8319 4 0.240018 4.607 -7.07983 
8936 4 -0.243234 3.92263 -6.49911 
1254 2 1.32392 3.65831 -6.95201 
1659 3 0.841516 4.17928 -7.08052 
3154 3 1.67973 4.68208 -6.10973 
4095 3 1.08401 4.41467 -6.46037 
4250 3 1.55861 4.35439 -7.08353 
4374 3 0.688369 3.6962 -6.57304 
9216 5 1.34021 3.76723 -6.22287 
9480 5 1.99344 3.46772 -6.01621 
9775 5 1.92881 4.10791 -6.50289 
833 2 2.47771 3.58765 -6.55576 
2305 3 2.43624 4.33929 -7.08347 
4065 3 2.627 4.26796 -6.34272 
8268 4 3.16755 4.43087 -6.8091 
8302 4 2.92762 3.79376 -7.08186 
8339 4 3.19889 3.8042 -6.36364 
8914 4 2.03092 3.729 -7.07867 
625 2 4.34229 4.43697 -6.11463 
1018 2 3.85548 4.004 -6.62819 
1809 3 3.80477 4.50126 -7.08479 
3777 3 4.3248 3.54823 -6.97296 
4183 3 3.76367 4.72371 -6.44671 
4685 3 4.2365 3.70627 -6.07938 
7762 4 3.60412 3.50388 -7.08014 
8018 4 4.4845 4.24545 -7.07886 
1301 2 5.03567 3.7083 -7.0798 
2779 3 5.85552 4.33756 -7.07912 
3038 3 5.84514 4.6223 -6.44074 
3107 3 5.18457 4.47933 -6.13639 
4043 3 5.89053 3.92283 -5.99603 
4097 3 5.15325 4.54322 -7.08251 
6348 4 5.85846 3.59468 -7.082 
7302 4 5.20383 3.643 -6.01121 
8690 4 4.76614 3.99164 -6.49874 
9147 5 5.48785 3.98608 -6.60158 
4163 3 6.49329 3.97972 -7.08262 
4273 3 7.07785 3.61376 -7.08216 
4437 3 7.08401 3.94218 -6.44666 
4859 3 6.42312 3.62044 -6.46162 
4973 3 6.48525 4.71451 -7.07944 
6780 4 7.08211 4.68298 -6.43597 
8019 4 7.0789 4.35566 -7.08299 
8256 4 6.48868 4.32146 -6.22429 
189 1 -6.4845 5.50621 -6.99148 
593 2 -6.88229 5.77326 -6.41773 
1292 2 -6.17727 4.86512 -7.07827 
2286 3 -7.07853 5.15665 -6.11339 
3446 3 -6.15641 5.89112 -6.44835 
7052 4 -6.41466 5.20929 -6.31956 
8746 4 -7.07928 5.83746 -7.0809 
9196 5 -7.08111 5.14454 -6.85092 
1095 2 -5.2211 4.89648 -6.07486 
3848 3 -5.34635 5.26787 -7.08092 
4355 3 -5.45024 6.06368 -6.53524 
4420 3 -5.00397 5.47846 -6.48057 
6865 4 -4.92413 4.78801 -6.73907 
7479 4 -5.83295 5.81618 -7.08081 
8148 4 -5.62708 5.52032 -6.07941 
9535 5 -4.982 6.00048 -7.08264 
9963 5 -5.75253 4.993 -6.56682 
1273 2 -4.34657 5.81702 -6.40878 
7067 4 -3.89561 5.34312 -7.08214 
7690 4 -3.62576 5.90564 -6.51512 
8014 4 -4.35751 5.09183 -6.37822 
8595 4 -4.61974 5.35716 -7.08254 
9016 5 -4.2048 6.01117 -7.08164 
9746 5 -3.53722 5.16904 -6.4857 
2355 3 -3.28087 5.75509 -7.0779 
2995 3 -2.21214 5.57238 -6.47111 
3382 3 -2.80787 5.15503 -6.34913 
4893 3 -2.12651 4.87513 -6.24816 
7407 4 -2.88438 5.86974 -6.53423 
8350 4 -2.63619 5.41243 -7.06302 
9279 5 -3.24642 5.01615 -7.07764 
462 1 -2.01728 5.78492 -7.0837 
1213 2 -1.47972 5.17972 -6.43011 
2042 3 -0.967508 4.79273 -7.0828 
4052 3 -1.99358 5.06144 -6.95478 
6556 4 -1.37418 5.41254 -7.07961 
7356 4 -1.55884 5.9083 -6.60098 
7740 4 -1.15472 5.73319 -6.0289 
8863 4 -1.04314 6.07151 -7.08171 
8868 4 -0.789259 5.08085 -6.19398 
2052 3 0.664648 4.7706 -5.95549 
3861 3 0.424383 6.01436 -6.63522 
4830 3 0.63788 5.55168 -6.10818 
5384 3 -0.264953 4.87633 -6.67539 
7332 4 0.03127 5.12752 -6.04301 
8098 4 -0.64258 5.4536 -7.08303 
8512 4 0.077089 5.32338 -7.08221 
8634 4 0.129648 6.06306 -5.96372 
9538 5 0.488835 5.05309 -6.61773 
9646 5 -0.190012 5.62316 -6.53712 
977 2 1.86468 5.98801 -6.4725 
1621 3 1.18273 5.13994 -6.40217 
2190 3 1.89827 5.26725 -6.50416 
2453 3 2.01045 4.93401 -7.08271 
3659 3 0.761981 5.57375 -7.08018 
4227 3 1.48739 5.46531 -7.08387 
8108 4 1.14642 5.85328 -6.55533 
8145 4 1.03646 4.88545 -7.08427 
2504 3 2.6529 4.9635 -6.77782 
2733 3 3.06004 5.48079 -6.45251 
3061 3 2.38103 4.9014 -6.09226 
3527 3 2.14127 5.78674 -7.08004 
4022 3 2.42045 5.63344 -6.13645 
4417 3 3.1034 4.80568 -6.16995 
7980 4 2.83453 5.58306 -7.08261 
1742 3 3.38517 5.09978 -7.03315 
2950 3 3.46059 6.02605 -6.19544 
3461 3 3.51708 5.85743 -7.08479 
4705 3 3.78943 5.45193 -6.52248 
5778 3 4.24717 5.88602 -6.97634 
6269 4 4.28389 5.90468 -6.23563 
8997 4 4.12412 5.1207 -5.95469 
9476 5 4.60842 4.82224 -6.6838 
9864 5 4.1218 5.1705 -7.08047 
71 1 5.89495 5.50888 -6.50079 
1504 3 5.1633 5.85614 -6.55984 
3893 3 5.29695 5.08949 -6.62724 
5586 3 4.76472 5.36042 -6.20687 
8093 4 5.61386 5.77669 -7.07844 
8882 4 4.81971 5.42805 -7.08473 
9052 5 5.84819 5.07767 -7.08172 
3279 3 7.08229 5.10806 -7.04598 
3650 3 6.3412 5.79147 -5.97135 
6672 4 6.40587 5.56464 -7.08073 
7011 4 7.0837 5.84453 -7.08005 
8890 4 7.07914 5.5466 -6.44643 
9119 5 6.5298 5.13313 -6.52928 
9140 5 6.60698 6.05645 -6.60086 
1208 2 -6.63113 7.08061 -6.13004 
2405 3 -6.2433 6.62179 -6.52319 
3678 3 -7.0822 7.08062 -6.64206 