LAMMPS (31 Mar 2017)
Reading data file ...
  orthogonal box = (-22.9938 -22.9938 -31.5415) to (22.9938 22.9938 31.5415)
  2 by 3 by 4 MPI processor grid
  reading atoms ...
  400312 atoms
  scanning bonds ...
  2 = max bonds/atom
  scanning angles ...
  3 = max angles/atom
  scanning impropers ...
  1 = max impropers/atom
  reading bonds ...
  348 bonds
  reading angles ...
  492 angles
  reading impropers ...
  108 impropers
Finding 1-2 1-3 1-4 neighbors ...
  special bond factors lj:   0          0          0         
  special bond factors coul: 0          0          0         
  3 = max # of 1-2 neighbors
  6 = max # of 1-3 neighbors
  15 = max # of 1-4 neighbors
  15 = max # of special neighbors
Neighbor list info ...
  update every 1 steps, delay 3 steps, check yes
  max neighbors/atom: 2000, page size: 100000
  master list distance cutoff = 3
  ghost atom cutoff = 3
  binsize = 1.5, bins = 31 31 43
  1 neighbor lists, perpetual/occasional/extra = 1 0 0
  (1) pair dpd, perpetual
      attributes: half, newton on
      pair build: half/bin/newton
      stencil: half/bin/3d/newton
      bin: standard
Setting up Verlet run ...
  Unit style    : lj
  Current step  : 0
  Time step     : 0.002
Per MPI rank memory allocation (min/avg/max) = 36.17 | 36.96 | 37.47 Mbytes
Step Temp Press PotEng KinEng TotEng E_pair E_mol 
       0            1    95.635306    18.608766    1.4999963    20.108763    18.460748   0.14801851 
    3000    1.0564311    28.044607    5.1923743    1.5846427     6.777017    5.1832193 0.0091549848 
    6000    1.0374505    26.759617    4.9924018    1.5561719    6.5485737      4.98386 0.0085418156 
    9000    1.0289224    26.098148    4.9053274    1.5433797    6.4487071    4.8961647 0.0091627689 
   12000    1.0272801    25.853682     4.846765    1.5409163    6.3876813    4.8378718 0.0088931882 
   15000    1.0238586    25.420088     4.810924    1.5357841    6.3467081    4.8023898 0.0085341679 
   18000    1.0186604    25.250314    4.7836307    1.5279867    6.3116174    4.7746889 0.0089418185 
   21000    1.0181655    25.143349     4.762712    1.5272444    6.2899563    4.7538698 0.0088421674 
   24000    1.0167696    25.024712    4.7418643    1.5251507    6.2670149    4.7330623 0.0088019471 
   27000     1.014015    24.900277    4.7289818    1.5210187    6.2500006    4.7206743 0.0083075874 
   30000    1.0123873     24.82604    4.7200272    1.5185772    6.2386044    4.7111993 0.0088278271 
   33000    1.0132739    24.786973      4.71356     1.519907     6.233467    4.7042088 0.0093511488 
   36000    1.0122268    24.684885     4.702117    1.5183365    6.2204534    4.6938441 0.0082728377 
   39000     1.014925    24.675828    4.6941937    1.5223838    6.2165774    4.6854634 0.0087302862 
   42000    1.0131965    24.617393    4.6881685    1.5197909    6.2079594    4.6790401 0.0091283371 
   45000    1.0107154    24.621032    4.6835321    1.5160693    6.1996015    4.6733415  0.010190625 
   48000    1.0104144    24.585735    4.6798843    1.5156179    6.1955021    4.6705894 0.0092949105 
   51000    1.0098129    24.596172    4.6744206    1.5147155    6.1891361    4.6647752 0.0096453647 
   54000      1.01128    24.465363    4.6701177    1.5169163    6.1870339    4.6610926 0.0090250793 
   57000     1.012038    24.454277    4.6645893    1.5180533    6.1826426    4.6554704 0.0091188772 
   60000    1.0121597    24.469483    4.6622513    1.5182357     6.180487    4.6526073 0.0096440079 
   63000    1.0101526    24.444951    4.6556868     1.515225    6.1709119    4.6463475 0.0093393417 
   66000    1.0100595    24.365129    4.6559976    1.5150854    6.1710831     4.646792 0.0092056743 
   69000    1.0093776    24.356775    4.6524155    1.5140626    6.1664781    4.6430792 0.0093362601 
   72000     1.007861    24.462843    4.6509873    1.5117877     6.162775    4.6412308 0.0097564811 
   75000    1.0074976    24.273656    4.6473177    1.5112426    6.1585604    4.6378743 0.0094434738 
   78000    1.0072147    24.345646    4.6464049    1.5108182    6.1572231    4.6368957 0.0095091483 
   81000    1.0077106    24.242775     4.645307    1.5115621    6.1568691    4.6359356 0.0093714724 
   84000    1.0060695    24.179414    4.6426653    1.5091005    6.1517658    4.6331487 0.0095166087 
   87000    1.0084274    24.176221    4.6393938    1.5126373    6.1520311    4.6301043 0.0092894943 
   90000    1.0088664     24.22199    4.6342118    1.5132959    6.1475077     4.624716 0.0094957948 
   93000    1.0066086    24.229104    4.6386719    1.5099091     6.148581    4.6288562 0.0098156801 
   96000     1.005736     24.21016    4.6336671    1.5086002    6.1422673    4.6242806 0.0093865836 
   99000    1.0067224    24.142482     4.631213    1.5100798    6.1412927    4.6214306 0.0097823958 
  102000    1.0095075    24.220344    4.6287518    1.5142575    6.1430093    4.6193995 0.0093522392 
  105000    1.0082178    24.082744    4.6260159    1.5123229    6.1383388    4.6167088 0.0093070829 
  108000    1.0086851    24.116779    4.6281595    1.5130239    6.1411834    4.6188444 0.0093150924 
  111000    1.0079861    24.159894     4.624873    1.5119754    6.1368484    4.6153219 0.0095511409 
  114000    1.0086403    24.131624    4.6208971    1.5129567    6.1338538    4.6123831 0.0085140434 
  117000    1.0068121     24.06488    4.6191059    1.5102144    6.1293202    4.6100836  0.009022218 
  120000    1.0084141     24.08381    4.6220287    1.5126174    6.1346461    4.6127445 0.0092841948 
  123000     1.008426    24.102466    4.6200656    1.5126352    6.1327008    4.6109818 0.0090838521 
  126000    1.0051792    24.086347    4.6189674    1.5077651    6.1267324    4.6096478 0.0093196253 
  129000    1.0048872    24.079091    4.6205882    1.5073271    6.1279152    4.6118819 0.0087062359 
  132000    1.0061019    24.079426    4.6180186    1.5091491    6.1271677    4.6092873 0.0087312957 
  135000    1.0044347    24.023744    4.6187748    1.5066482     6.125423    4.6090638 0.0097109828 
  138000    1.0042593    24.092925    4.6188946    1.5063852    6.1252798    4.6098996 0.0089950218 
  141000     1.005784    24.062943    4.6186125    1.5086722    6.1272847    4.6089645  0.009647942 
  144000    1.0029415     24.14996    4.6163446    1.5044085     6.120753    4.6069245 0.0094200978 
  147000    1.0030658    24.085749    4.6169953    1.5045949    6.1215902    4.6076713 0.0093240425 
  150000    1.0069642    24.075462     4.615247    1.5104425    6.1256895    4.6054226 0.0098243971 
  153000    1.0073166    23.994391    4.6137006    1.5109711    6.1246717    4.6051145  0.008586131 
  156000    1.0045525    24.075905    4.6128527    1.5068249    6.1196776     4.603154 0.0096986239 
  159000    1.0052036    24.048238    4.6134092    1.5078016    6.1212108    4.6036279 0.0097813672 
  162000    1.0057788    23.988655    4.6114071    1.5086644    6.1200715    4.6017636 0.0096434963 
  165000    1.0063722    24.012198    4.6084232    1.5095546    6.1179777    4.5990816  0.009341598 
  168000    1.0060166    23.966504    4.6085453    1.5090212    6.1175665    4.5993496 0.0091957835 
  171000    1.0071374     24.01349    4.6065724    1.5107023    6.1172747    4.5970186 0.0095537515 
  174000    1.0048097    23.966606    4.6042592    1.5072108      6.11147    4.5948825 0.0093767451 
  177000    1.0056684    24.043284    4.6024862    1.5084989    6.1109851    4.5927822 0.0097039804 
  180000    1.0060447    24.009169     4.601764    1.5090633    6.1108273    4.5927519 0.0090121498 
  183000    1.0055582    23.983145    4.6026808    1.5083336    6.1110144    4.5935968 0.0090840418 
  186000    1.0056165    24.036509    4.6013578     1.508421    6.1097788    4.5924034 0.0089544122 
  189000    1.0045374    23.976481    4.6034358    1.5068023    6.1102381    4.5942121 0.0092236843 
  192000    1.0018342    24.048076    4.6039982    1.5027476    6.1067457    4.5945896 0.0094085479 
  195000    1.0008746    24.019507     4.603104    1.5013081    6.1044121    4.5936073 0.0094966824 
  198000    1.0007592    24.040951    4.6029195    1.5011351    6.1040546    4.5938016 0.0091179102 
  201000    1.0013021    24.080481    4.6013333    1.5019494    6.1032826    4.5926056 0.0087276282 
  204000    1.0025571    24.010068    4.6046265    1.5038318    6.1084583    4.5952217 0.0094047519 
  207000    1.0033406    24.022528    4.6022781    1.5050071    6.1072852    4.5929329 0.0093451978 
  210000     1.002248    23.967136    4.6011569    1.5033683    6.1045252    4.5918739 0.0092830048 
  213000    1.0017862    23.974625    4.6034177    1.5026756    6.1060933    4.5938198 0.0095979931 
  216000    1.0026115    23.955368    4.5991866    1.5039135    6.1031001     4.590129 0.0090576165 
  219000    1.0046013    23.873865    4.6014657    1.5068982    6.1083639    4.5921018 0.0093639338 
  222000    1.0046416    23.978848    4.6009151    1.5069587    6.1078738    4.5916816 0.0092335179 
  225000    1.0023229    23.910744    4.5987286    1.5034806    6.1022092    4.5893232 0.0094054824 
  228000    1.0052347    23.904726    4.5990083    1.5078483    6.1068566    4.5896252 0.0093831028 
  231000    1.0008337    23.944631    4.6019626    1.5012467    6.1032094     4.592318 0.0096445894 
  234000    1.0041575    23.942768    4.6025849    1.5062326    6.1088175    4.5929002 0.0096847078 
  237000    1.0013389    23.996228    4.6016142    1.5020046    6.1036189    4.5923712 0.0092430706 
  240000    1.0009335    24.021396    4.6000702    1.5013964    6.1014667    4.5905294 0.0095407923 
  243000     1.001836    23.982454    4.6019364    1.5027502    6.1046867    4.5926326 0.0093038975 
  246000     1.001462     23.97698    4.6015048    1.5021892     6.103694    4.5922057 0.0092991209 
  249000    1.0015973    24.016094    4.6014424    1.5023922    6.1038346    4.5919883 0.0094541723 
  252000    1.0015698    23.965859    4.5995142    1.5023509    6.1018651    4.5900897 0.0094244796 
  255000   0.99905677     23.91586    4.5995278    1.4985814    6.0981092    4.5898944 0.0096334094 
  258000    1.0007648    23.993126    4.5985517    1.5011435    6.0996952    4.5888841 0.0096676159 
  261000    1.0027847    23.948815    4.6016981    1.5041733    6.1058714    4.5921082 0.0095899315 
  264000    1.0004959    24.078938    4.5981477      1.50074    6.0988877     4.588775 0.0093727074 
  267000    1.0002487    24.007558    4.5992907    1.5003694      6.09966    4.5898644  0.009426247 
  270000    1.0014044    23.906746    4.6012613    1.5021028    6.1033641    4.5916604 0.0096008951 
  273000    1.0021726    24.034547    4.6011203    1.5032552    6.1043755     4.591497 0.0096233012 
  276000    1.0014871    23.953214    4.5989022    1.5022269    6.1011291    4.5898264 0.0090758042 
  279000    1.0017519    23.972014    4.6014457    1.5026241    6.1040699     4.592474 0.0089717197 
  282000   0.99983799    24.005918    4.6001759    1.4997532    6.0999291    4.5912575 0.0089184111 
  285000    1.0028052    24.012088    4.6002966    1.5042041    6.1045007    4.5910965 0.0092001275 
  288000   0.99977215    23.984054    4.5989035    1.4996545     6.098558    4.5898251  0.009078455 
  291000    1.0004396    23.991472    4.5991056    1.5006557    6.0997613    4.5899878 0.0091178143 
  294000    1.0009232    23.925449    4.6013468     1.501381    6.1027278    4.5915705 0.0097763289 
  297000    1.0022086    24.023664    4.5969829    1.5033092    6.1002921     4.588291 0.0086918996 
  300000    1.0049723    24.024886    4.6008334    1.5074547    6.1082881    4.5914943 0.0093391397 
  303000    1.0006281    23.981862    4.5989685    1.5009384    6.0999069     4.590142 0.0088264995 
  306000     1.001578    23.916922    4.5983981    1.5023633    6.1007613    4.5895215 0.0088765552 
  309000    1.0015699    23.980654    4.6017623    1.5023511    6.1041134    4.5918578 0.0099045663 
  312000     1.003139    23.960555    4.5979315    1.5047047    6.1026362    4.5888539 0.0090775887 
  315000    1.0007228    23.911704    4.5969909    1.5010805    6.0980714    4.5879559 0.0090350501 
  318000   0.99827485    23.986639    4.6004847    1.4974085    6.0978933    4.5908553 0.0096294627 
  321000    1.0026153    23.911932    4.5985029    1.5039191    6.1024221    4.5899262 0.0085766908 
  324000   0.99992254    23.997105    4.6008387    1.4998801    6.1007188    4.5919643 0.0088743455 
  327000   0.99854619    23.906457    4.6005796    1.4978155    6.0983951    4.5917701 0.0088094256 
  330000    1.0023782    24.090651    4.5986609    1.5035636    6.1022245    4.5894507 0.0092102414 
  333000    1.0005777    23.917402    4.6007991    1.5008628    6.1016619    4.5908439 0.0099551838 
  336000   0.99850235    23.901561    4.5985133    1.4977498    6.0962631    4.5892357 0.0092776539 
  339000    1.0000498    23.986011    4.5981113    1.5000709    6.0981822     4.588388 0.0097233314 
  342000    1.0027359    23.978816    4.6014328    1.5041001    6.1055329     4.592168 0.0092648086 
  345000    1.0003369    23.934494    4.5990166    1.5005017    6.0995183    4.5897474 0.0092691886 
  348000    1.0024585    23.996633     4.599842     1.503684     6.103526     4.590718 0.0091239289 
  351000     1.002863    24.001866    4.5985234    1.5042907    6.1028141    4.5894513  0.009072146 
  354000    1.0018736    23.953423    4.6000276    1.5028067    6.1028343    4.5911235 0.0089040449 
  357000    1.0014109    23.953118    4.5980602    1.5021126    6.1001729    4.5890244 0.0090358129 
  360000    1.0034568    24.035202     4.600529    1.5051815    6.1057104    4.5911415 0.0093874601 
  363000    1.0002934    24.025709    4.5995641    1.5004363    6.1000003    4.5902444 0.0093196198 
  366000     1.000999    23.948904    4.5967948    1.5014948    6.0982895    4.5873284  0.009466397 
  369000    1.0014087    24.020702    4.6007671    1.5021093    6.1028764    4.5909823 0.0097848099 
  372000     1.000515    23.974461    4.5971407    1.5007687    6.0979095    4.5877263 0.0094144342 
  375000    1.0009063    23.965138    4.6002026    1.5013557    6.1015583    4.5912857 0.0089168784 
  378000    1.0025564    23.936754    4.6006758    1.5038308    6.1045067    4.5912561 0.0094197117 
  381000    1.0022088    23.981797    4.6013464    1.5033095    6.1046558    4.5917496 0.0095967663 
  384000    1.0016173    24.011033    4.5997806    1.5024223    6.1022028    4.5903844 0.0093961494 
  387000    1.0002036    23.993041    4.6000543    1.5003016    6.1003559    4.5908699 0.0091844381 
  390000    1.0028189    23.939097    4.5979612    1.5042245    6.1021857    4.5885554 0.0094057902 
  393000    1.0035142    23.906095     4.596686    1.5052676    6.1019537    4.5878435 0.0088425004 
  396000    1.0023457    23.949964    4.5978819    1.5035148    6.1013967    4.5887884  0.009093527 
  399000    1.0014426    23.950303    4.5983919    1.5021601    6.1005521    4.5896529 0.0087390769 
  402000    1.0027524    24.006886    4.5990739    1.5041248    6.1031987    4.5897579 0.0093160543 
  405000    1.0022312    23.889915    4.5993246    1.5033431    6.1026678    4.5901256 0.0091990176 
  408000      1.00296     24.02147    4.6004476    1.5044363    6.1048839    4.5915455 0.0089020194 
  411000   0.99928572    23.995128    4.5979653    1.4989248    6.0968901    4.5888745 0.0090907933 
  414000    1.0010739    23.953543    4.5980803    1.5016072    6.0996874     4.588266  0.009814299 
  417000   0.99886667    24.008006     4.598353    1.4982963    6.0966492    4.5888774 0.0094755217 
  420000   0.99884396    23.943551    4.6005449    1.4982622    6.0988071    4.5911364 0.0094085515 
  423000    1.0018055     23.99435    4.5978858    1.5027045    6.1005904    4.5886257 0.0092601781 
  426000    1.0029945    23.936957    4.5984025    1.5044881    6.1028906    4.5889598 0.0094427145 
  429000    1.0020511        23.99    4.5983449    1.5030728    6.1014177    4.5893558 0.0089890431 
  432000   0.99996804    23.933394    4.5998735    1.4999483    6.0998218    4.5906861 0.0091873529 
  435000    1.0003137     23.96369    4.5985162    1.5004668     6.098983    4.5895035 0.0090126788 
  438000    1.0009791    23.959915    4.5986495    1.5014649    6.1001144    4.5896624  0.008987153 
  441000    1.0013238    23.912086    4.6002364    1.5019819    6.1022183    4.5914515  0.008784942 
  444000     1.000743    24.000396    4.6000853    1.5011108     6.101196    4.5906499 0.0094353293 
  447000    1.0008718    23.896455    4.5993556     1.501304    6.1006596    4.5902935 0.0090621052 
  450000   0.99945859    23.885677    4.5992393    1.4991841    6.0984234    4.5895132 0.0097260611 
  453000     1.001018    24.020003    4.5995761    1.5015232    6.1010993    4.5902008 0.0093753255 
  456000    0.9998785    23.931306    4.6003333     1.499814    6.1001474    4.5908107 0.0095226244 
  459000    1.0017552    24.048287    4.5991984     1.502629    6.1018273    4.5902873 0.0089110297 
  462000    1.0009032    23.985256    4.5991893    1.5013511    6.1005403    4.5895025 0.0096867595 
  465000    1.0005732    23.972683    4.5989277     1.500856    6.0997837    4.5897552 0.0091725297 
  468000     1.001809    23.951531      4.59715    1.5027098    6.0998598    4.5880541 0.0090959061 
  471000    1.0011306    23.974289    4.5991538    1.5016921    6.1008459    4.5898689 0.0092848422 
  474000    1.0032344    24.031429    4.5993048    1.5048479    6.1041527    4.5902779 0.0090269821 
  477000    1.0009385    23.912395    4.5967333     1.501404    6.0981373    4.5880007 0.0087325346 
  480000   0.99929841    23.919531    4.5985242    1.4989439    6.0974681    4.5894285 0.0090957293 
  483000    1.0029696    23.971574    4.5985281    1.5044506    6.1029787    4.5891789 0.0093492289 
  486000    0.9995214    23.928483    4.5997988    1.4992784    6.0990772    4.5911044 0.0086943512 
  489000    1.0032884    23.981739    4.5998015    1.5049289    6.1047304    4.5906402 0.0091612823 
  492000     1.000534    23.953763    4.5973803    1.5007973    6.0981777    4.5882388 0.0091415885 
  495000    1.0008312    23.926825    4.5991666    1.5012431    6.1004097     4.589991 0.0091756373 
  498000   0.99814942     23.94087    4.6004341    1.4972204    6.0976545    4.5917051 0.0087290094 
  501000     1.001666    24.025363    4.5977749    1.5024953    6.1002702    4.5884537 0.0093212584 
  504000    1.0017186    23.964276    4.5969935    1.5025741    6.0995677     4.588267 0.0087265685 
  507000     1.001925    23.951937     4.601406    1.5028837    6.1042896    4.5916667 0.0097392407 
  510000   0.99969536    24.011495    4.5999476    1.4995393    6.0994869    4.5909735 0.0089740369 
  513000    1.0011852    23.914149    4.5984668    1.5017741    6.1002409      4.58939  0.009076736 
  516000    1.0007332    23.968323    4.5986055     1.501096    6.0997015    4.5890927  0.009512793 
  519000     1.002154    23.958599    4.5988985    1.5032272    6.1021257    4.5893917 0.0095068336 
  522000    1.0010651    23.942018    4.6002079    1.5015939    6.1018018    4.5913288 0.0088791253 
  525000    1.0013011    23.960141    4.5979426    1.5019479    6.0998905    4.5891754 0.0087671783 
  528000    1.0009633    23.902436    4.5994016    1.5014412    6.1008429    4.5904976 0.0089040316 
  531000     1.001092    23.998065    4.5977692    1.5016343    6.0994034    4.5887012  0.009067955 
  534000   0.99947868    23.982037    4.5986984    1.4992143    6.0979127    4.5895251 0.0091733048 
  537000    1.0020387    23.891175    4.5967053    1.5030544    6.0997597    4.5874935 0.0092117729 
  540000    1.0003444    23.975087    4.5999149    1.5005129    6.1004278    4.5904739 0.0094410179 
  543000    1.0021801    24.001546    4.6009528    1.5032663    6.1042191    4.5916505 0.0093022886 
  546000    1.0003639     23.91712    4.5973985     1.500542    6.0979405    4.5883201 0.0090783131 
  549000    1.0000015     24.04964    4.5975384    1.4999986     6.097537    4.5883649 0.0091735254 
  552000    1.0005302    23.954255      4.59689    1.5007915    6.0976815    4.5873519 0.0095380995 
  555000    1.0027844    23.963919    4.5964848    1.5041728    6.1006576    4.5869581 0.0095267598 
  558000   0.99990711    23.900987    4.5988063    1.4998569    6.0986632    4.5892787 0.0095276283 
  561000   0.99800509    23.989005    4.6006937    1.4970039    6.0976976    4.5914813 0.0092123443 
  564000   0.99945014    23.915993    4.6012145    1.4991715     6.100386    4.5922455 0.0089690543 
  567000    1.0007294    23.979985    4.5981069    1.5010904    6.0991973    4.5891907 0.0089162532 
  570000    1.0017955    23.985492    4.5953544    1.5026896    6.0980439    4.5859447  0.009409617 
  573000    1.0028114    24.026515    4.5978855    1.5042133    6.1020988    4.5883694 0.0095160974 
  576000    1.0002245    23.964998    4.5994528     1.500333    6.0997858    4.5899989 0.0094538999 
  579000    1.0020105    23.905233    4.5981962     1.503012    6.1012083    4.5886043 0.0095919454 
  582000    1.0008346    24.008344     4.597483    1.5012481    6.0987311    4.5884636   0.00901943 
  585000    1.0025471    23.957257    4.5982448    1.5038169    6.1020617    4.5888488 0.0093959686 
  588000   0.99799514    23.895057    4.5986372     1.496989    6.0956262    4.5901209 0.0085162814 
  591000   0.99845548    23.979287    4.5964852    1.4976795    6.0941646    4.5873723 0.0091128619 
  594000    1.0011943    23.978682     4.600048    1.5017876    6.1018356    4.5901829 0.0098650594 
  597000    1.0019356    23.918199    4.6000513    1.5028997     6.102951    4.5905485 0.0095027797 
  600000    1.0013381    23.930752    4.5978601    1.5020034    6.0998635     4.588678 0.0091820586 
  603000    1.0021498    23.955581    4.5995137    1.5032209    6.1027346    4.5896743 0.0098394136 
  606000    1.0011162    24.025929    4.5990859    1.5016706    6.1007565    4.5897771 0.0093088338 
  609000    1.0022948    23.977313    4.5981892    1.5034384    6.1016276    4.5886728 0.0095163754 
  612000    1.0013682    23.942209    4.5993705    1.5020485     6.101419    4.5902007 0.0091697919 
  615000    1.0025657    23.918993    4.5971825    1.5038448    6.1010273     4.588043 0.0091395285 
  618000    1.0013842     23.93301    4.5996739    1.5020725    6.1017465    4.5909875 0.0086864716 
  621000     1.000664    24.014925    4.5979835    1.5009923    6.0989758    4.5884578 0.0095257466 
  624000    1.0007148    23.905915    4.5960582    1.5010685    6.0971267     4.586415 0.0096432015 
  627000   0.99909593    23.938123    4.5971156    1.4986402    6.0957558    4.5882345  0.008881129 
  630000    1.0016138    23.950992    4.5979916     1.502417    6.1004085    4.5888556 0.0091359623 
  633000    0.9998028    23.964579    4.5967781    1.4997005    6.0964785    4.5874337 0.0093444128 
  636000    1.0013062    23.952594    4.5990301    1.5019555    6.1009856     4.590203 0.0088270575 
  639000    1.0015423    23.979797     4.598091    1.5023097    6.1004007    4.5889757  0.009115318 
  642000   0.99929226    23.923722    4.6017257    1.4989346    6.1006604    4.5923505 0.0093752667 
  645000   0.99807905    23.940944    4.5972042    1.4971148     6.094319     4.588596 0.0086081702 
  648000    1.0001464    24.007071    4.5962795    1.5002159    6.0964954     4.586967  0.009312473 
  651000    1.0027646    24.016518    4.5987769    1.5041432    6.1029201    4.5893808  0.009396134 
  654000    1.0015858    23.958722    4.5985711     1.502375    6.1009461    4.5887448 0.0098262795 
  657000     1.000335    23.983069    4.5967885    1.5004987    6.0972872    4.5876708 0.0091176544 
  660000   0.99973512    24.022439    4.5984176    1.4995989    6.0980165    4.5886693 0.0097482825 
  663000    1.0034858    23.965764    4.6017807    1.5052249    6.1070056    4.5923727 0.0094080765 
  666000    1.0010952    23.947678    4.6004575    1.5016391    6.1020966    4.5908996 0.0095578886 
  669000    1.0035033    24.004563     4.598891    1.5052512    6.1041422     4.589169 0.0097220395 
  672000     1.001615    24.051585     4.598133    1.5024187    6.1005517    4.5887324 0.0094006293 
  675000     1.000356    23.911389     4.599112    1.5005303    6.0996423    4.5895371 0.0095749379 
  678000    1.0012551    24.013503    4.5992009    1.5018789    6.1010798    4.5899839 0.0092170146 
  681000   0.99979162     23.93642    4.5974758    1.4996837    6.0971594    4.5882652 0.0092105345 
  684000    1.0009469    23.963471    4.5976577    1.5014166    6.0990742    4.5886645 0.0089932085 
  687000    1.0024358    24.004337    4.5981562      1.50365    6.1018062    4.5889348 0.0092213775 
  690000    1.0007092    23.988484    4.5992529    1.5010601    6.1003129    4.5902372 0.0090156462 
  693000    1.0037366     24.02237    4.5971754    1.5056011    6.1027765    4.5881446 0.0090308488 
  696000    1.0002499    23.926656    4.5974878    1.5003712     6.097859    4.5887912 0.0086966375 
  699000    1.0008509    23.936484    4.5980446    1.5012727    6.0993172     4.588464 0.0095806161 
  702000    1.0028082    23.965119    4.5983366    1.5042086    6.1025452    4.5885563 0.0097802642 
  705000    1.0013599    23.905163    4.5971752    1.5020361    6.0992114    4.5875252 0.0096499887 
  708000    1.0012736    24.001875    4.5973879    1.5019066    6.0992946    4.5882749 0.0091130684 
  711000    1.0010538    23.909102    4.5979161    1.5015769     6.099493    4.5894086 0.0085074247 
  714000    1.0024727    23.976479    4.5975027    1.5037053     6.101208    4.5881792 0.0093234831 
  717000    1.0005063    23.930409    4.5987393    1.5007557    6.0994951    4.5894447 0.0092946334 
  720000    1.0013314    23.987364    4.5979998    1.5019933    6.0999931    4.5883829 0.0096169345 
  723000   0.99909755    24.005884    4.5979729    1.4986426    6.0966155    4.5886415 0.0093313566 
  726000   0.99986241    23.928896    4.5986686    1.4997899    6.0984584    4.5894432 0.0092254079 
  729000    1.0004098    23.977767    4.6009519    1.5006109    6.1015628    4.5919109 0.0090409673 
  732000   0.99961924    24.023687    4.5976619    1.4994251     6.097087    4.5887136 0.0089482413 
  735000    1.0018595    23.965422    4.5994572    1.5027855    6.1022427    4.5901689 0.0092883129 
  738000    1.0014467    23.934739    4.5982304    1.5021663    6.1003966    4.5889527 0.0092777358 
  741000    1.0006745    23.898232    4.5959299     1.501008     6.096938    4.5872967 0.0086332561 
  744000   0.99947189    23.958687    4.5969655    1.4992041    6.0961696    4.5882884 0.0086770847 
  747000    1.0007683    23.911529    4.5986652    1.5011487    6.0998139    4.5901149 0.0085502781 
  750000   0.99880942    23.921309    4.5994354    1.4982104    6.0976458    4.5898179 0.0096174994 
  753000    1.0033748    23.892477    4.6009514    1.5050585    6.1060098    4.5913998 0.0095515637 
  756000    1.0021142     24.06277    4.5965427    1.5031675    6.0997102    4.5875569 0.0089857011 
  759000    1.0019631    24.033206    4.5963021    1.5029408     6.099243    4.5870155 0.0092866552 
  762000    1.0006858    23.890597    4.5982468    1.5010249    6.0992716    4.5889814 0.0092653555 
  765000    1.0009131    23.973498    4.5983212    1.5013659    6.0996871    4.5890437 0.0092775341 
  768000   0.99944699    23.969542    4.5982081    1.4991667    6.0973749    4.5887838 0.0094243455 
  771000    1.0000651    23.960309    4.5991925     1.500094    6.0992865    4.5899223 0.0092701989 
  774000    1.0020371    23.971539    4.5998534    1.5030519    6.1029053    4.5900413  0.009812148 
  777000   0.99925456    23.909387    4.5968165    1.4988781    6.0956946    4.5871249 0.0096915517 
  780000     1.001793      24.0322    4.5994684    1.5026857    6.1021541    4.5900343   0.00943414 
  783000   0.99975752    24.029352    4.5971001    1.4996325    6.0967327    4.5880738 0.0090263518 
  786000    1.0006846    23.943379    4.5980559    1.5010232    6.0990791     4.588996 0.0090598761 
  789000    1.0033185    23.948781    4.5968709    1.5049739    6.1018448    4.5876292 0.0092416272 
  792000    1.0012035    23.932006    4.5969681    1.5018015    6.0987696     4.588186 0.0087821196 
  795000    1.0021257      23.9296    4.5973807    1.5031849    6.1005656    4.5884845 0.0088962332 
  798000   0.99981491    23.967019    4.5988327    1.4997186    6.0985513    4.5895683 0.0092644324 
  801000     1.000699    24.004894    4.5980268    1.5010447    6.0990715    4.5887024 0.0093244393 
  804000    1.0018528     23.93052    4.5978915    1.5027755    6.1006669    4.5890127 0.0088787555 
  807000    1.0022344    23.971771     4.597398    1.5033478    6.1007459    4.5878574 0.0095406758 
  810000    1.0017495    23.884516    4.5958058    1.5026205    6.0984263    4.5868715 0.0089343259 
  813000    1.0016001    23.978095    4.5968432    1.5023965    6.0992397    4.5871298 0.0097134078 
  816000    1.0000603    23.897799     4.599397    1.5000868    6.0994837    4.5902236 0.0091733489 
  819000     1.000416     23.97283    4.5986417    1.5006203     6.099262    4.5894617 0.0091800276 
  822000   0.99892045     23.94949    4.5993446    1.4983769    6.0977215    4.5900859 0.0092587187 
  825000   0.99984822    23.937464    4.5980753    1.4997686    6.0978439    4.5889885  0.009086806 
  828000    1.0019463    23.953471    4.5970067    1.5029157    6.0999224    4.5876944 0.0093123175 
  831000     1.000326    23.920305    4.5968659    1.5004853    6.0973512    4.5877049 0.0091609712 
  834000    1.0014401    24.046679    4.5981085    1.5021564    6.1002649    4.5889176 0.0091908746 
  837000    1.0016608     24.01817    4.5995487    1.5024874    6.1020362    4.5904602 0.0090885428 
  840000    1.0019084    23.950337    4.5970478    1.5028589    6.0999067    4.5879846 0.0090631891 
  843000    1.0006028    23.930731    4.5982423    1.5009005    6.0991428    4.5896056 0.0086367492 
  846000   0.99859493    24.011753    4.5994459    1.4978887    6.0973345    4.5900637 0.0093821349 
  849000    1.0012091    23.936428    4.5965549      1.50181    6.0983648    4.5875429 0.0090120075 
  852000    1.0006227    23.964244    4.5979643    1.5009303    6.0988945    4.5886045 0.0093597695 
  855000    1.0007401     23.89486    4.5994043    1.5011065    6.1005108    4.5899076  0.009496737 
  858000     1.003918    23.928736    4.5990049    1.5058733    6.1048782    4.5899212 0.0090836842 
  861000   0.99909531    23.954088    4.5979341    1.4986392    6.0965734     4.588733 0.0092011339 
  864000    1.0018957    24.010477    4.5986889    1.5028399    6.1015288     4.589154 0.0095349006 
  867000    1.0029806     23.99508     4.596558    1.5044671    6.1010251    4.5877674 0.0087905787 
  870000    1.0010277     24.01129    4.5971852    1.5015378     6.098723    4.5881287 0.0090564959 
  873000    1.0031469     23.93398    4.5987364    1.5047166     6.103453    4.5894957 0.0092407155 
  876000    1.0011101    23.969619    4.6014576    1.5016614    6.1031191    4.5922158 0.0092418519 
  879000    1.0017187    24.002493    4.5954894    1.5025744    6.0980638    4.5861713 0.0093180814 
  882000    1.0006097    23.971132    4.5983562    1.5009108     6.099267    4.5892314  0.009124802 
  885000    1.0015525     23.92463    4.5985779     1.502325    6.1009029    4.5891291  0.009448744 
  888000    1.0005132    23.923303    4.5960894     1.500766    6.0968555    4.5866547 0.0094347504 
  891000      1.00044     23.92783    4.5970331    1.5006563    6.0976894    4.5879657 0.0090673718 
  894000    1.0001146     23.94482    4.5962552    1.5001681    6.0964233    4.5867478  0.009507435 
  897000    1.0021301    23.896108    4.5979452    1.5031913    6.1011365    4.5885988 0.0093463682 
  900000    0.9987539    23.950878    4.5982148    1.4981271    6.0963419    4.5887474 0.0094674013 
  903000     1.002172    23.943692    4.5993549    1.5032543    6.1026091    4.5898772 0.0094776821 
  906000    1.0013061    23.946944    4.5977453    1.5019554    6.0997007    4.5884249 0.0093204556 
  909000    1.0000967    23.960348    4.5993571    1.5001412    6.0994983    4.5907475 0.0086095649 
  912000    1.0003386    23.950424    4.5985069    1.5005042    6.0990111     4.589481 0.0090259323 
  915000    1.0014218    23.976616    4.6001866     1.502129    6.1023156    4.5912439 0.0089427142 
  918000   0.99961882     23.92199    4.5996226    1.4994245    6.0990471    4.5907825 0.0088400314 
  921000    1.0028281    24.002068    4.5985169    1.5042384    6.1027553    4.5893717 0.0091451802 
  924000   0.99862698    23.956785    4.5974544    1.4979367    6.0953911    4.5882688 0.0091856334 
  927000    1.0017151    23.957815    4.5989729    1.5025688    6.1015417    4.5896814 0.0092915272 
  930000   0.99828775    23.961785    4.5977899    1.4974279    6.0952178    4.5884385 0.0093513866 
  933000    1.0010907    23.941783    4.6004218    1.5016323    6.1020541    4.5913101 0.0091116857 
  936000   0.99943824    23.986607    4.5979359    1.4991536    6.0970895    4.5889545  0.008981446 
  939000    1.0004737    23.996674    4.5986949    1.5007068    6.0994017    4.5893612 0.0093336465 
  942000   0.99875982    23.913157    4.5980238     1.498136    6.0961598    4.5887336 0.0092901299 
  945000    1.0012943    23.966221    4.5954288    1.5019377    6.0973666    4.5864754 0.0089534923 
  948000     1.000788     23.93581    4.5979145    1.5011783    6.0990928    4.5889427 0.0089718109 
  951000    1.0015022     23.98027    4.5977588    1.5022495    6.1000082    4.5879791 0.0097796423 
  954000   0.99945773    23.918722    4.6008959    1.4991829    6.1000787    4.5917912 0.0091047091 
  957000    1.0014054     23.98417    4.5968348    1.5021044    6.0989392    4.5878079 0.0090268597 
  960000     1.002156    23.963772    4.5970595    1.5032303    6.1002898     4.588204 0.0088555464 
  963000    1.0010614     23.85996    4.5951572    1.5015883    6.0967455    4.5860768 0.0090803961 
  966000    1.0017429    23.989044    4.5966113    1.5026106    6.0992219    4.5876776 0.0089337355 
  969000    1.0031036    24.017721    4.6011348    1.5046516    6.1057864    4.5912028 0.0099319955 
  972000   0.99797455    23.912096    4.6007975    1.4969581    6.0977556    4.5916189 0.0091786364 
  975000    1.0008625     23.98547    4.5992573    1.5012901    6.1005474     4.590288 0.0089692905 
  978000    1.0002595    23.908698    4.5967002    1.5003855    6.0970857    4.5882916 0.0084085913 
  981000   0.99835751    23.951044    4.5967872    1.4975325    6.0943197    4.5869526 0.0098346191 
  984000    1.0015807    23.887049    4.5999049    1.5023674    6.1022723     4.590173 0.0097318662 
  987000    1.0009916     23.96299    4.5995454    1.5014836     6.101029    4.5898219 0.0097234205 
  990000    1.0026239    23.964272     4.596843     1.503932     6.100775    4.5876668 0.0091761881 
  993000    1.0020114    23.975931    4.5984445    1.5030134    6.1014579    4.5896894 0.0087550467 
  996000    1.0013133    24.033298    4.5973361    1.5019662    6.0993023    4.5875239  0.009812145 
  999000    1.0001783    23.924357     4.599298    1.5002637    6.0995617     4.589976 0.0093219578 
 1002000    1.0006162    23.923801    4.5997808    1.5009205    6.1007013    4.5903021 0.0094787448 
 1005000   0.99840852    23.917774    4.5970414     1.497609    6.0946505    4.5883442 0.0086972042 
 1008000    1.0014384    23.927646    4.5992557    1.5021538    6.1014095    4.5899175 0.0093381845 
 1011000   0.99945642    23.947841    4.5976255    1.4991809    6.0968064    4.5884753 0.0091502059 
 1014000    1.0013637    23.941257    4.5993944    1.5020418    6.1014362    4.5903916 0.0090027282 
 1017000     1.000887    23.994752    4.5984267    1.5013268    6.0997535    4.5893235  0.009103174 
 1020000   0.99900906    23.969739    4.5995976    1.4985098    6.0981074    4.5902854 0.0093122002 
 1023000    1.0016733    23.965062    4.5991058    1.5025062     6.101612     4.590318 0.0087877739 
 1026000    1.0021027    23.885048    4.5979855    1.5031503    6.1011359    4.5884886 0.0094968794 
 1029000    1.0007828    23.871463    4.5975586    1.5011705    6.0987291     4.588729 0.0088296299 
 1032000    1.0012586    23.984032    4.5980598    1.5018841    6.0999439    4.5888443 0.0092154701 
 1035000    1.0004494    23.982759    4.5988227    1.5006704     6.099493    4.5898289 0.0089937505 
 1038000   0.99878867     24.05988    4.5983683    1.4981793    6.0965476     4.588944 0.0094243548 
 1041000    1.0002792    23.954246    4.6001093     1.500415    6.1005243    4.5904538 0.0096554723 
 1044000   0.99834087    23.940849     4.597529    1.4975076    6.0950365    4.5879939  0.009535133 
 1047000    1.0013444    24.034678    4.5968389    1.5020128    6.0988517    4.5875966 0.0092422437 
 1050000    1.0017164    23.981401    4.5978757    1.5025709    6.1004465    4.5886208 0.0092549193 
 1053000   0.99925218    23.914954    4.5969209    1.4988745    6.0957954     4.587677 0.0092439237 
 1056000    1.0025435    23.989232    4.5985836    1.5038115    6.1023951    4.5893307 0.0092528204 
 1059000    1.0000488    23.938939    4.5979516    1.5000694    6.0980211    4.5890995 0.0088521368 
 1062000   0.99794838      23.9281    4.5995202    1.4969188     6.096439     4.589727 0.0097931269 
 1065000    0.9984037     23.97872    4.5963789    1.4976018    6.0939807    4.5872597 0.0091192402 
 1068000    1.0007082    23.944781    4.5959533    1.5010585    6.0970118    4.5864603 0.0094930439 
 1071000    1.0014762    24.005064    4.6003209    1.5022105    6.1025314    4.5912666 0.0090543063 
 1074000    1.0020771    23.943273      4.59737    1.5031119    6.1004819    4.5883244 0.0090456642 
 1077000    1.0002171    23.965612    4.5964686     1.500322    6.0967906    4.5871185  0.009350085 
 1080000   0.99981519    23.997193    4.5976788     1.499719    6.0973978    4.5885153 0.0091634749 
 1083000    1.0009843    23.956385    4.5962572    1.5014727    6.0977298    4.5869455 0.0093116718 
 1086000    1.0013222    23.978335    4.5972208    1.5019795    6.0992004    4.5880824 0.0091384507 
 1089000    1.0010212    23.983278    4.5978769    1.5015281     6.099405    4.5887311 0.0091458426 
 1092000   0.99885777    23.953491    4.5987542    1.4982829    6.0970371      4.58968 0.0090742622 
 1095000    1.0024164    23.959488    4.5982616    1.5036208    6.1018823    4.5883314 0.0099301268 
 1098000    1.0001658    23.876856    4.5990309    1.5002449    6.0992758    4.5898665 0.0091644313 
 1101000    1.0028686    23.946379    4.5992202    1.5042991    6.1035193    4.5902896  0.008930583 
 1104000    1.0009965    23.980436    4.5997027     1.501491    6.1011937    4.5907365 0.0089661954 
 1107000    1.0003048    23.931676    4.5979087    1.5004535    6.0983622    4.5882595 0.0096491609 
 1110000    1.0013415     24.01499    4.5973949    1.5020085    6.0994034    4.5875232 0.0098717356 
 1113000    1.0008068    23.909833    4.5972011    1.5012065    6.0984076    4.5882169 0.0089842026 
 1116000    1.0002902    23.971414    4.5997596    1.5004315    6.1001911    4.5909884 0.0087711833 
 1119000    1.0036118    23.924121    4.5998958     1.505414    6.1053098    4.5917124 0.0081834692 
 1122000    1.0020996    24.009949     4.601192    1.5031456    6.1043376     4.591678 0.0095139604 
 1125000    1.0009919    23.971986    4.5972365    1.5014841    6.0987206     4.588483 0.0087535074 
 1128000    1.0008488    23.886833    4.5984461    1.5012695    6.0997155    4.5888358 0.0096102361 
 1131000   0.99812661    24.011704    4.5987838    1.4971862      6.09597    4.5896059 0.0091779137 
 1134000    1.0012364    24.005398    4.5976609    1.5018508    6.0995117    4.5884558 0.0092051978 
 1137000     1.001059    23.970335    4.5977746    1.5015848    6.0993595    4.5882706 0.0095040456 
 1140000    0.9980667    23.963956    4.5987472    1.4970963    6.0958435    4.5896653 0.0090819653 
 1143000    1.0007577    23.960292    4.5987938    1.5011328    6.0999267    4.5892928 0.0095010487 
 1146000   0.99881225    23.977631    4.6006696    1.4982146    6.0988843    4.5910668 0.0096027964 
 1149000    1.0013512    23.996319    4.5969166    1.5020231    6.0989396    4.5877276 0.0091889115 
 1152000     1.001334    24.038603    4.5993486    1.5019973    6.1013459    4.5905162 0.0088324105 
 1155000    1.0007312    24.028581     4.596642     1.501093     6.097735    4.5877266 0.0089154163 
 1158000   0.99874404    23.969392    4.5982302    1.4981123    6.0963425    4.5891052 0.0091250032 
 1161000    1.0000033    23.956095    4.5952297    1.5000013     6.095231    4.5863484  0.008881388 
 1164000    1.0013542    23.977611    4.5971852    1.5020275    6.0992126    4.5881035 0.0090816478 
 1167000    1.0012474    23.960447    4.5987039    1.5018673    6.1005712    4.5893011  0.009402765 
 1170000    1.0001423    23.931385    4.6008726    1.5002098    6.1010824    4.5911002 0.0097724031 
 1173000    1.0002809    23.970214    4.5977047    1.5004176    6.0981223    4.5885361 0.0091685908 
 1176000    1.0013986    23.951433    4.5977695    1.5020941    6.0998636    4.5884789 0.0092905701 
 1179000    1.0007296    23.905568    4.5985196    1.5010907    6.0996102    4.5892364 0.0092832013 
 1182000    1.0017786    23.988386    4.6006509    1.5026642     6.103315    4.5913049 0.0093459784 
 1185000   0.99990563    23.910454    4.5984732    1.4998547    6.0983279    4.5891569 0.0093163077 
 1188000    1.0005673    23.961668    4.6004807    1.5008471    6.1013279    4.5907236 0.0097571545 
 1191000    1.0001116    23.912174    4.5976056    1.5001637    6.0977693    4.5883872 0.0092183889 
 1194000    1.0013028    23.936324    4.5987292    1.5019505    6.1006797    4.5890833 0.0096459429 
 1197000   0.99789653    23.811174    4.5961637    1.4968411    6.0930047     4.587001 0.0091626223 
 1200000   0.99947463    23.900025    4.5959486    1.4992082    6.0951568    4.5863638 0.0095848259 
 1203000    1.0014278    24.011458    4.5969194    1.5021379    6.0990572    4.5880301 0.0088892848 
 1206000    1.0016847    24.018513    4.5978796    1.5025232    6.1004029    4.5882938  0.009585811 
 1209000    1.0029981    23.963636    4.6009201    1.5044934    6.1054135    4.5920415 0.0088786507 
 1212000   0.99857328     23.95859     4.597089    1.4978562    6.0949452    4.5882632 0.0088258495 
 1215000    1.0034424    23.889249    4.5986961    1.5051599     6.103856    4.5893288 0.0093673528 
 1218000   0.99888198    23.878756    4.5991938    1.4983192    6.0975131    4.5894579 0.0097359639 
 1221000    1.0003236    23.918814    4.5977851    1.5004817    6.0982668    4.5883256 0.0094594808 
 1224000   0.99997705    23.944333    4.5978918    1.4999618    6.0978536     4.588878 0.0090137988 
 1227000    1.0010004    23.868694    4.5968454    1.5014968    6.0983423    4.5882241 0.0086213815 
 1230000    1.0017222    23.870321    4.5968837    1.5025796    6.0994633    4.5876945 0.0091892189 
 1233000   0.99904394     23.97294    4.5978347    1.4985622    6.0963969    4.5883933 0.0094414161 
 1236000     1.000271    23.886613    4.5973819    1.5004028    6.0977847    4.5881897 0.0091921729 
 1239000    1.0018445    23.978966    4.5976817    1.5027629    6.1004446    4.5887197 0.0089620352 
 1242000   0.99904842    23.926324    4.5996753    1.4985689    6.0982442     4.591073 0.0086023599 
 1245000   0.99804836    23.875617    4.5981286    1.4970688    6.0951975     4.589135  0.008993688 
 1248000     1.001275      23.9121    4.5974377    1.5019087    6.0993464    4.5878322  0.009605539 
 1251000     1.002817    23.952248     4.597398    1.5042218    6.1016198    4.5886266 0.0087713956 
 1254000    1.0017005    23.991064    4.5971074    1.5025471    6.0996545    4.5883451 0.0087623255 
 1257000    1.0019105    23.896873    4.5987872     1.502862    6.1016492    4.5892445  0.009542661 
 1260000    1.0016305    23.884294    4.5989277    1.5024419    6.1013696    4.5893085  0.009619169 
 1263000   0.99936153    23.930313     4.596349    1.4990385    6.0953876    4.5870739 0.0092751149 
 1266000     1.000201    24.003871    4.5982228    1.5002977    6.0985206    4.5891123 0.0091105325 
 1269000      0.99913     23.92364    4.5983831    1.4986913    6.0970743    4.5892644 0.0091186127 
 1272000   0.99938636    24.010944    4.5990273    1.4990758    6.0981031    4.5898549  0.009172364 
 1275000    1.0016661    23.956399    4.5997575    1.5024954    6.1022529    4.5908206 0.0089368401 
 1278000    1.0005604    23.957312    4.5984983    1.5008369    6.0993352    4.5891874 0.0093109355 
 1281000    1.0021952    23.971957    4.5986606    1.5032891    6.1019497    4.5891086 0.0095520311 
 1284000    0.9984869    24.000183    4.5978459    1.4977266    6.0955725    4.5884357 0.0094101764 
 1287000    1.0000454    23.980788    4.5971131    1.5000644    6.0971775    4.5878019 0.0093112332 
 1290000    1.0022472    23.927973     4.594974    1.5033671    6.0983411    4.5861558 0.0088181991 
 1293000    1.0015323    23.882201    4.5967994    1.5022947    6.0990941    4.5877178 0.0090815521 
 1296000    1.0011937    24.001817    4.5993879    1.5017868    6.1011747     4.590306 0.0090818789 
 1299000    1.0002461    23.944149    4.5979269    1.5003653    6.0982922    4.5886003 0.0093265921 
 1302000   0.99758057    23.960276    4.5974603    1.4963671    6.0938275    4.5879839 0.0094763833 
 1305000   0.99971606    23.987107     4.600028    1.4995703    6.0995983    4.5908636 0.0091644034 
 1308000    1.0037355    23.954369    4.5974823    1.5055994    6.1030818    4.5887809 0.0087013877 
 1311000    1.0012974    23.925612    4.5985328    1.5019424    6.1004751    4.5894009 0.0091318973 
 1314000   0.99826889    23.946802    4.5985645    1.4973996    6.0959641    4.5895674 0.0089971025 
 1317000    1.0019092    23.972962    4.5982908    1.5028601    6.1011509    4.5893235 0.0089673672 
 1320000   0.99947451    24.007267    4.5998605     1.499208    6.0990686    4.5902289 0.0096316849 
 1323000    1.0003383    23.993703    4.5983951    1.5005038    6.0988988      4.58917 0.0092251136 
 1326000    1.0028694    23.954399    4.5970548    1.5043003    6.1013551    4.5876079 0.0094468657 
 1329000     1.000898    23.981814     4.598475    1.5013433    6.0998183     4.589662 0.0088129727 
 1332000    1.0008568    23.891182    4.5986795    1.5012814    6.0999609    4.5892831 0.0093964284 
 1335000    1.0022031    23.905866    4.5972387    1.5033009    6.1005396    4.5876505 0.0095881765 
 1338000     1.000356    23.920065    4.5948417    1.5005303    6.0953719    4.5856119 0.0092297863 
 1341000    1.0020849    23.969045     4.597034    1.5031236    6.1001577    4.5875213 0.0095127217 
 1344000    1.0021234    23.910227    4.5986992    1.5031813    6.1018805    4.5891623  0.009536903 
 1347000   0.99887135    23.880551    4.5966073    1.4983033    6.0949105    4.5873182 0.0092890782 
 1350000    1.0023736    24.006274    4.6000146    1.5035566    6.1035712    4.5903595 0.0096550577 
 1353000   0.99946666     23.90343      4.60027    1.4991962    6.0994662    4.5912762 0.0089938057 
 1356000    0.9996847    23.970546    4.5982857    1.4995233     6.097809    4.5889484 0.0093373272 
 1359000    1.0024469    23.989494     4.597365    1.5036666    6.1010316    4.5878729 0.0094921273 
 1362000    1.0038834    23.962808     4.596893    1.5058213    6.1027144    4.5878539 0.0090391322 
 1365000   0.99981815    23.996026    4.5940929    1.4997235    6.0938164    4.5856239 0.0084690426 
 1368000   0.99873381    23.893927    4.5979726     1.498097    6.0960695     4.588629 0.0093436175 
 1371000    1.0018306    23.867392    4.5977088    1.5027421    6.1004509    4.5887306 0.0089782479 
 1374000    1.0000976    23.925781    4.5984947    1.5001426    6.0986374    4.5897604 0.0087342986 
 1377000    1.0015038    23.945089    4.5975041     1.502252    6.0997561    4.5880956 0.0094085018 
 1380000    1.0018011    23.859498    4.5989906     1.502698    6.1016885    4.5899362 0.0090544117 
 1383000   0.99943554    23.892845    4.5959511    1.4991496    6.0951007    4.5871746 0.0087765118 
 1386000    1.0018684     23.91944    4.5984816    1.5027988    6.1012804    4.5891093 0.0093722564 
 1389000    1.0010085    23.960583    4.5964562     1.501509    6.0979652    4.5875596 0.0088966698 
 1392000    1.0009252    23.983742    4.5971371    1.5013841    6.0985212    4.5874806 0.0096565635 
 1395000   0.99967711    23.984644    4.5986968    1.4995119    6.0982088    4.5897151 0.0089817549 
 1398000    1.0019474    23.982852    4.5975099    1.5029173    6.1004272    4.5889959 0.0085140168 
 1401000   0.99868539    23.931746    4.5972855    1.4980243    6.0953098    4.5881661 0.0091194415 
 1404000    1.0017069    23.977853    4.5961382    1.5025566    6.0986948    4.5870781 0.0090601064 
 1407000   0.99989121    23.908473    4.5988207    1.4998331    6.0986537    4.5897779 0.0090427698 
 1410000    1.0026324    24.041305    4.5950502    1.5039449    6.0989951    4.5860297 0.0090204972 
 1413000    1.0000064    23.946027    4.5972289    1.5000058    6.0972347    4.5878977 0.0093311307 
 1416000   0.99998056    23.895777    4.5979971    1.4999671    6.0979642    4.5887742 0.0092229013 
 1419000   0.99967103    24.006526    4.5944027    1.4995028    6.0939055    4.5855267 0.0088760732 
 1422000    1.0010912    23.912353    4.5972988    1.5016331    6.0989319    4.5877588 0.0095400147 
 1425000    1.0011475    23.915893    4.5999363    1.5017175    6.1016538    4.5908133 0.0091230349 
 1428000    1.0017717    23.951234    4.5970345    1.5026538    6.0996884     4.587534 0.0095005407 
 1431000    1.0014592    23.928953      4.59933    1.5021851    6.1015151    4.5900617 0.0092683172 
 1434000    1.0048492    23.992867    4.5974822    1.5072701    6.1047523    4.5880881 0.0093941301 
 1437000    1.0024981    23.946703    4.5968791    1.5037434    6.1006225    4.5874511 0.0094280144 
 1440000    1.0005655    23.986676    4.5973705    1.5008445     6.098215     4.588624 0.0087464755 
 1443000    1.0002432    23.993075    4.5946998     1.500361    6.0950608     4.585496 0.0092038148 
 1446000    1.0019225    23.909974    4.5969714      1.50288    6.0998514    4.5877735 0.0091978697 
 1449000    1.0017851    23.972602    4.5982819    1.5026739    6.1009559    4.5893915  0.008890394 
 1452000    1.0021646    23.934994    4.5990261    1.5032432    6.1022693    4.5902182 0.0088079225 
 1455000    1.0042817     24.01977    4.5956042    1.5064187    6.1020229    4.5862565 0.0093476091 
 1458000   0.99998025    23.993972    4.5952591    1.4999666    6.0952257    4.5863525 0.0089065847 
 1461000    1.0023422     23.94974    4.5985867    1.5035096    6.1020963     4.589767 0.0088196857 
 1464000    1.0004243    23.914443    4.5970016    1.5006327    6.0976343    4.5881887 0.0088128559 
 1467000    1.0010887    23.985133    4.5980755    1.5016293    6.0997048     4.588405 0.0096704912 
 1470000   0.99875451    24.040747    4.5971865     1.498128    6.0953145    4.5881068   0.00907964 
 1473000    1.0000237    23.951227    4.5974875    1.5000317    6.0975193    4.5880738 0.0094137122 
 1476000    1.0019477    23.972278    4.5970076    1.5029178    6.0999253    4.5872415 0.0097661095 
 1479000    1.0018933    23.946443    4.5984013    1.5028362    6.1012375     4.589376 0.0090253391 
 1482000   0.99992084    24.026727    4.5980648    1.4998775    6.0979423    4.5886721    0.0093927 
 1485000    1.0016298    23.931327     4.600271    1.5024409    6.1027119    4.5901906  0.010080467 
 1488000   0.99983897    23.964669    4.5967121    1.4997547    6.0964668    4.5876781 0.0090340307 
 1491000    1.0017639    23.990577    4.5989724     1.502642    6.1016144    4.5893156 0.0096567591 
 1494000    1.0036396    23.982117    4.5980234    1.5054557    6.1034791    4.5888506 0.0091727621 
 1497000    1.0026682    23.884254    4.5996544    1.5039986     6.103653    4.5900309 0.0096235575 
 1500000   0.99981931    23.943126    4.5955846    1.4997252    6.0953098    4.5867682 0.0088164414 
 1503000    1.0018701    23.969373    4.5984809    1.5028014    6.1012823    4.5890799 0.0094009849 
 1506000    1.0003521    23.913147    4.5962017    1.5005243     6.096726    4.5871597 0.0090420325 
 1509000   0.99902397    24.051953    4.5972049    1.4985322    6.0957372    4.5887255 0.0084794439 
 1512000     1.001928    23.964272    4.5934603    1.5028882    6.0963486     4.584614 0.0088463301 
 1515000   0.99988033    23.963291    4.5980321    1.4998168    6.0978488    4.5885782 0.0094539461 
 1518000    1.0031185    23.915849    4.5953985     1.504674    6.1000725    4.5865377 0.0088608059 
 1521000   0.99925813    23.955902    4.5971751    1.4988834    6.0960585    4.5884371 0.0087379461 
 1524000   0.99938066    23.897036    4.5989231    1.4990673    6.0979904     4.589069 0.0098541282 
 1527000     1.000255    23.915397    4.5970359    1.5003787    6.0974146    4.5882412 0.0087946624 
 1530000    1.0003926    23.970998    4.5979338    1.5005852     6.098519    4.5892007 0.0087331596 
 1533000    1.0005673    23.968569     4.599977    1.5008471    6.1008241    4.5902357  0.009741274 
 1536000    1.0023538    23.931446    4.5985933    1.5035269    6.1021202     4.589768 0.0088253002 
 1539000    1.0009232    24.028622    4.5988108    1.5013811    6.1001919    4.5887476  0.010063205 
 1542000   0.99816944       23.899    4.5973524    1.4972504    6.0946028    4.5883987 0.0089536261 
 1545000    1.0007887    24.002946     4.598905    1.5011793    6.1000843    4.5898229 0.0090821403 
 1548000   0.99980709    23.886073     4.596548    1.4997069    6.0962549    4.5885529 0.0079951096 
 1551000    1.0010621     23.96203    4.5972535    1.5015894    6.0988429    4.5882507 0.0090027876 
 1554000   0.99993384    23.880944    4.5962946     1.499897    6.0961917    4.5873765 0.0089181671 
 1557000     1.000318    23.924484    4.5989628    1.5004732     6.099436    4.5892781 0.0096846836 
 1560000    1.0005573    23.945023    4.6005704    1.5008321    6.1014025    4.5908474 0.0097230204 
 1563000   0.99979762    24.000715    4.5987657    1.4996927    6.0984584      4.58969 0.0090756171 
 1566000   0.99895597    23.920329    4.5977004    1.4984302    6.0961306    4.5882237 0.0094766847 
 1569000   0.99931908    23.898696    4.5976891    1.4989749     6.096664    4.5880822 0.0096069069 
 1572000    1.0027674    23.943723    4.5965805    1.5041473    6.1007277    4.5875388 0.0090416501 
 1575000   0.99972827    23.886288    4.5976205    1.4995887    6.0972091     4.588233 0.0093874126 
 1578000    1.0036652    24.006514    4.5969951    1.5054941    6.1024892    4.5874844 0.0095106642 
 1581000    1.0015872     23.96959    4.5984919     1.502377    6.1008689    4.5885489 0.0099430025 
 1584000   0.99926992    23.982023    4.5966797    1.4989011    6.0955808    4.5873562 0.0093234807 
 1587000    1.0013604    23.934286    4.5962719    1.5020368    6.0983087    4.5869687  0.009303255 
 1590000   0.99957437    24.002333    4.5970571    1.4993578    6.0964149    4.5878416 0.0092155159 
 1593000    1.0008348     23.87413    4.5967335    1.5012484    6.0979819    4.5879241 0.0088093575 
 1596000    1.0008381    23.943542    4.5996107    1.5012533    6.1008641    4.5904416 0.0091691606 
 1599000    1.0016838    23.953273    4.5981402    1.5025219    6.1006621     4.589168 0.0089721726 
 1602000    1.0004571    23.905482    4.5981647     1.500682    6.0988466    4.5889363 0.0092283877 
 1605000   0.99793617    23.967976    4.5953508    1.4969005    6.0922513    4.5859963 0.0093545131 
 1608000    1.0033417    23.987146    4.5972768    1.5050087    6.1022855    4.5887901 0.0084867555 
 1611000    1.0011486    23.966026    4.5959026    1.5017192    6.0976218    4.5873812 0.0085214346 
 1614000    1.0019536     23.98574    4.5969058    1.5029266    6.0998324    4.5874523 0.0094534667 
 1617000    1.0009746    23.996274    4.5979622    1.5014582    6.0994204    4.5882198 0.0097424454 
 1620000   0.99976198    23.910847     4.597032    1.4996392    6.0966712    4.5880347 0.0089973252 
 1623000    1.0000338    23.912747    4.5981456    1.5000469    6.0981925    4.5891076 0.0090380079 
 1626000   0.99957172    23.910407    4.5966474    1.4993538    6.0960012    4.5876462 0.0090011781 
 1629000    1.0024492    23.931142    4.5980886    1.5036701    6.1017587    4.5888855 0.0092031617 
 1632000    1.0005894    24.025844    4.5974796    1.5008804    6.0983599    4.5885481 0.0089315304 
 1635000    1.0018828    23.988587    4.5964032    1.5028204    6.0992237    4.5876004 0.0088028509 
 1638000    1.0023503    23.910676     4.596142    1.5035217    6.0996636    4.5867657 0.0093762606 
 1641000    1.0017215    23.971185    4.5946487    1.5025784    6.0972271    4.5852623 0.0093864324 
 1644000    1.0029718    23.987154     4.596758    1.5044539     6.101212     4.587485 0.0092729959 
 1647000    1.0004418    24.066606      4.59839     1.500659    6.0990489    4.5886275  0.009762487 
 1650000    1.0015548    23.925567    4.5983545    1.5023284    6.1006829    4.5888266 0.0095279131 
 1653000    1.0000525    23.930288    4.5960572    1.5000749    6.0961321    4.5872205 0.0088366871 
 1656000    1.0015789    23.938859    4.5987056    1.5023645    6.1010701    4.5890704 0.0096351583 
 1659000    1.0027476    24.034923    4.5958932    1.5041176    6.1000109    4.5873075  0.008585717 
 1662000    1.0011124    23.980935    4.5959351    1.5016648       6.0976    4.5872524 0.0086827733 
 1665000    1.0006338    23.970165    4.5954263     1.500947    6.0963733    4.5857565 0.0096698099 
 1668000    1.0017265    24.006029    4.5994047     1.502586    6.1019906    4.5906638 0.0087408839 
 1671000    1.0008437     23.94158    4.5975158    1.5012618    6.0987776    4.5882411 0.0092747545 
 1674000    1.0032309    23.965288    4.5967078    1.5048427    6.1015505    4.5880617 0.0086460834 
 1677000    1.0015385    23.999021    4.5984945     1.502304    6.1007984    4.5890932 0.0094013094 
 1680000    1.0011005    23.950439    4.5992498    1.5016471    6.1008969    4.5901514 0.0090984298 
 1683000    1.0008017    23.904502    4.5969208    1.5011987    6.0981195     4.587559 0.0093617552 
 1686000    1.0001645    23.958893    4.5997109    1.5002429    6.0999539    4.5902055  0.009505404 
 1689000    1.0006961    23.989842    4.5958878    1.5010404    6.0969282     4.587525 0.0083628075 
 1692000   0.99987933    23.878835    4.5976802    1.4998153    6.0974954    4.5886823 0.0089978533 
 1695000    1.0007454    23.929199    4.5963716    1.5011143    6.0974859    4.5873728 0.0089988142 
 1698000    1.0018709    23.986818    4.5939079    1.5028027    6.0967105    4.5846001  0.009307716 
 1701000    1.0019077    23.936247    4.5961289    1.5028578    6.0989868    4.5868564 0.0092725193 
 1704000    1.0036161    23.967778     4.596641    1.5054203    6.1020613    4.5870441 0.0095969284 
 1707000    1.0028104    23.976532    4.5968949    1.5042119    6.1011068    4.5872912 0.0096036557 
 1710000    1.0018714    23.935048    4.5973524    1.5028033    6.1001557    4.5883891 0.0089632418 
 1713000   0.99960791    23.927326    4.5966079    1.4994081     6.096016    4.5877177 0.0088902222 
 1716000    0.9999157     23.91977    4.5979461    1.4998698    6.0978159    4.5888031 0.0091429528 
 1719000    1.0014539    23.895604     4.597515    1.5021772    6.0996921     4.587926 0.0095890081 
 1722000    1.0005978    24.023349    4.5979302    1.5008929    6.0988232    4.5886534 0.0092768047 
 1725000    1.0031046    23.933966    4.5969511    1.5046531    6.1016042     4.588638 0.0083130885 
 1728000   0.99911505    23.959378    4.5964387    1.4986688    6.0951076    4.5876348 0.0088038932 
 1731000    1.0024659    23.997042    4.5975876    1.5036951    6.1012827    4.5885749 0.0090126894 
 1734000    1.0014403     23.97378    4.5974435    1.5021566    6.0996002    4.5887572 0.0086863653 
 1737000    1.0011548     23.95224    4.5982685    1.5017284    6.0999969    4.5898389 0.0084296469 
 1740000   0.99950912    23.898068     4.598177    1.4992599     6.097437    4.5890561 0.0091209159 
 1743000   0.99930202    23.983869    4.5987313    1.4989493    6.0976806    4.5892655 0.0094658335 
 1746000    1.0023904    23.926313    4.5981183    1.5035819    6.1017002     4.589263 0.0088552928 
 1749000    1.0027212    23.924666    4.5975683    1.5040781    6.1016464    4.5879558 0.0096124936 
 1752000    1.0032695    23.966353     4.599498    1.5049005    6.1043985    4.5896351 0.0098628844 
 1755000    1.0009336    23.915536    4.5984681    1.5013967    6.0998648    4.5888296 0.0096385216 
 1758000    1.0011602    23.925191    4.5969535    1.5017366    6.0986901    4.5878384 0.0091150734 
 1761000    1.0009151    23.960133    4.5986272    1.5013688    6.0999961    4.5894224 0.0092048159 
 1764000    1.0021023    23.937668    4.5987868    1.5031497    6.1019365     4.589229 0.0095578182 
 1767000    1.0003509    23.927739     4.595505    1.5005226    6.0960276    4.5866736 0.0088313787 
 1770000    1.0008706    23.947658     4.597782    1.5013022    6.0990842    4.5879882 0.0097937246 
 1773000   0.99916268    23.923901    4.5972538    1.4987403    6.0959941    4.5879606 0.0092931616 
 1776000     1.003145    23.975175    4.5984567    1.5047137    6.1031704    4.5887229 0.0097337777 
 1779000    1.0002255    23.944536      4.59514    1.5003344    6.0954745    4.5864123 0.0087277056 
 1782000    1.0019863    23.869022    4.5973839    1.5029757    6.1003597    4.5876916   0.00969237 
 1785000    1.0016361    24.022338    4.5976951    1.5024504    6.1001455    4.5881258 0.0095692546 
 1788000    1.0007862    24.027404    4.5976789    1.5011755    6.0988544    4.5881814   0.00949754 
 1791000    1.0009993    23.952495    4.5996364    1.5014953    6.1011316     4.590135 0.0095013461 
 1794000   0.99995723    23.936466    4.5956544    1.4999321    6.0955865    4.5863215 0.0093329822 
 1797000   0.99999869    23.978721    4.5971709    1.4999943    6.0971652    4.5877751 0.0093957775 
 1800000   0.99993331    24.051543    4.5994016    1.4998962    6.0992978    4.5892888  0.010112838 
 1803000     1.001433    23.956904    4.5975289    1.5021457    6.0996746    4.5882861  0.009242821 
 1806000    1.0016644    24.022644    4.5969111    1.5024928    6.0994039    4.5880357 0.0088753479 
 1809000    1.0019002     24.00528    4.5985027    1.5028466    6.1013493    4.5890582 0.0094444674 
 1812000   0.99935606    23.910352    4.5959971    1.4990304    6.0950274    4.5867025 0.0092945518 
 1815000    0.9991211    23.950918    4.5992503    1.4986779    6.0979282    4.5897933 0.0094569996 
 1818000    1.0024993    24.006839    4.5961883    1.5037452    6.0999335    4.5864931  0.009695239 
 1821000    0.9989505    23.876694    4.5958318     1.498422    6.0942538    4.5863571  0.009474713 
 1824000    1.0009473    24.075657    4.5981882    1.5014172    6.0996054    4.5887593 0.0094289157 
 1827000    1.0009883     23.94505    4.5973067    1.5014787    6.0987854    4.5883835 0.0089232306 
 1830000     1.000535    23.932618    4.5971074    1.5007988    6.0979062    4.5878831 0.0092242691 
 1833000    1.0009337    23.893134    4.5967327    1.5013968    6.0981294    4.5874454 0.0092872432 
 1836000    1.0010734    24.010476    4.5982228    1.5016064    6.0998292    4.5890232  0.009199573 
 1839000    1.0017942    23.978562    4.5957201    1.5026875    6.0984077    4.5861489 0.0095712452 
 1842000     1.000405    23.984001    4.5997796    1.5006037    6.1003833    4.5909201 0.0088595261 
 1845000    1.0025912    23.977603    4.5964498     1.503883    6.1003328     4.587163 0.0092867794 
 1848000    1.0008699    23.869621    4.5967597    1.5013011    6.0980608    4.5878077 0.0089520488 
 1851000   0.99977259    23.901344    4.5980169    1.4996551     6.097672    4.5889064 0.0091105315 
 1854000    1.0012541    23.963085    4.5968198    1.5018774    6.0986972    4.5881134 0.0087064123 
 1857000   0.99959149    23.901588     4.596095    1.4993835    6.0954785    4.5867891 0.0093059672 
 1860000    1.0009249    23.944283    4.5939523    1.5013836    6.0953359     4.584887 0.0090652404 
 1863000    1.0033987    23.972378    4.5970714    1.5050943    6.1021657     4.587645 0.0094263691 
 1866000    1.0009653    24.020124    4.5975013    1.5014443    6.0989456    4.5881478 0.0093535332 
 1869000   0.99991113    23.976164    4.5954686    1.4998629    6.0953316    4.5864784 0.0089902632 
 1872000    1.0019924    23.905468    4.5959888    1.5029849    6.0989737    4.5863293 0.0096595036 
 1875000   0.99970347    23.911017     4.598344    1.4995515    6.0978955    4.5889996  0.009344442 
 1878000    1.0005516    23.969771     4.598892    1.5008237    6.0997157    4.5894912  0.009400791 
 1881000   0.99976021    23.966495    4.5955434    1.4996366      6.09518    4.5867428 0.0088005907 
 1884000    1.0032165    24.012886    4.5988541     1.504821     6.103675    4.5892072 0.0096468393 
 1887000    1.0001487    23.974287    4.5978757    1.5002193     6.098095    4.5889706 0.0089050416 
 1890000    0.9995003    24.009163    4.5971234    1.4992467    6.0963701    4.5879277 0.0091957383 
 1893000     1.001432    23.930053    4.5985708    1.5021442     6.100715    4.5893392  0.009231606 
 1896000   0.99831306    23.979102    4.6001879    1.4974658    6.0976537    4.5904167 0.0097711421 
 1899000    1.0004794    23.934495    4.5958091    1.5007154    6.0965245    4.5863752 0.0094339173 
 1902000    1.0023403    23.952179     4.599013    1.5035067    6.1025197    4.5896245 0.0093884688 
 1905000    1.0001516    23.961229    4.5954722    1.5002237    6.0956959    4.5862566  0.009215599 
 1908000    1.0014704    23.947441     4.596786    1.5022018    6.0989878    4.5875472 0.0092387967 
 1911000    1.0006431    23.966198    4.5962428    1.5009608    6.0972036    4.5875962  0.008646641 
 1914000   0.99838868    23.973174    4.5976901    1.4975793    6.0952693    4.5890271 0.0086629921 
 1917000    1.0008738    23.925497    4.5961977     1.501307    6.0975047    4.5871688 0.0090289142 
 1920000    1.0013267    24.040137     4.597165    1.5019863    6.0991514    4.5881989 0.0089660868 
 1923000     1.001608    23.905511    4.5975407    1.5024083    6.0999489    4.5885234 0.0090172395 
 1926000   0.99960463    23.915503    4.5968539    1.4994032    6.0962571    4.5874744  0.009379491 
 1929000   0.99968869    23.926496    4.5960635    1.4995293    6.0955928    4.5870059  0.009057517 
 1932000    1.0022837    23.963751    4.5947483    1.5034217    6.0981701    4.5853381 0.0094102757 
 1935000    1.0022087    23.923795    4.5967061    1.5033093    6.1000155    4.5871409 0.0095652254 
 1938000    1.0020316    23.957788     4.598797    1.5030436    6.1018406    4.5896972 0.0090997522 
 1941000   0.99978225     23.91997    4.5963276    1.4996696    6.0959972    4.5869873 0.0093402631 
 1944000   0.99992876    23.959161    4.5975647    1.4998894    6.0974541    4.5882947 0.0092699941 
 1947000   0.99852363    23.975324    4.5971395    1.4977817    6.0949212    4.5883787 0.0087608753 
 1950000    1.0006311    23.937695    4.5981678    1.5009429    6.0991107    4.5885562 0.0096116374 
 1953000    1.0018678    23.910643    4.5977536     1.502798    6.1005516    4.5881138 0.0096398071 
 1956000    1.0012504    23.974655     4.596942    1.5018719    6.0988139    4.5877792 0.0091627683 
 1959000   0.99938304    23.930147    4.5992126    1.4990708    6.0982834    4.5902775 0.0089350238 
 1962000    1.0015008     24.04264     4.598884    1.5022474    6.1011314    4.5892436 0.0096404347 
 1965000   0.99886201    23.971615     4.596226    1.4982893    6.0945153    4.5868334 0.0093925658 
 1968000   0.99995804    23.970678    4.5946113    1.4999333    6.0945446    4.5858833  0.008727973 
 1971000    1.0017893    24.020472    4.5977143    1.5026801    6.1003944    4.5886424 0.0090718571 
 1974000    1.0022364    23.976827    4.5967648    1.5033508    6.1001156    4.5874528 0.0093120399 
 1977000     1.001602    23.891327    4.5985923    1.5023992    6.1009916    4.5893985 0.0091938155 
 1980000   0.99981172    23.985374    4.6009563    1.4997138    6.1006701    4.5914666  0.009489688 
 1983000    0.9990547    23.921326     4.595351    1.4985783    6.0939293    4.5860556 0.0092953997 
 1986000    1.0023735    24.033127    4.5951947    1.5035564    6.0987511    4.5864271 0.0087676117 
 1989000    1.0007473    23.943503     4.596827    1.5011172    6.0979442    4.5876531 0.0091738813 
 1992000    1.0024558    23.920725    4.5972676    1.5036799    6.1009475    4.5877435 0.0095240298 
 1995000    1.0008107    23.909225      4.59659    1.5012123    6.0978023    4.5871598 0.0094302697 
 1998000    1.0004738    23.983412    4.5979196     1.500707    6.0986266    4.5896344 0.0082852886 
 2001000     1.002317    23.914283    4.5966518    1.5034717    6.1001235    4.5873577 0.0092941145 
 2004000   0.99930649    23.966216    4.5961396     1.498956    6.0950956    4.5872181 0.0089215598 
 2007000     1.001429    23.909925    4.5970222    1.5021397    6.0991619    4.5876537 0.0093685491 
 2010000    1.0016992    23.935735    4.5971063     1.502545    6.0996513    4.5875567 0.0095495842 
 2013000    1.0019842    24.017057    4.5960736    1.5029725    6.0990461    4.5862062 0.0098673821 
 2016000   0.99924786    23.963756     4.597082     1.498868      6.09595    4.5879231 0.0091588495 
 2019000    1.0006845    23.909069    4.5981567     1.501023    6.0991797    4.5887504 0.0094062733 
 2022000     1.001771    23.991423    4.5982976    1.5026527    6.1009503    4.5887329 0.0095647023 
 2025000    1.0009213    23.958505    4.5970298    1.5013782    6.0984081    4.5876315  0.009398318 
 2028000    1.0019733    23.918154    4.5957329    1.5029562    6.0986891    4.5863443 0.0093885778 
 2031000    1.0015895    23.858832    4.5982158    1.5023805    6.1005963    4.5887771 0.0094386624 
 2034000    1.0015775     23.91395    4.5968165    1.5023626    6.0991791    4.5868605 0.0099560766 
 2037000   0.99921816    23.920331    4.5989628    1.4988235    6.0977863    4.5888979  0.010064986 
 2040000    1.0011389    23.987772    4.5951644    1.5017046     6.096869    4.5862956 0.0088688045 
 2043000    1.0015879    23.901584    4.5962816    1.5023781    6.0986597    4.5873307 0.0089509596 
 2046000    1.0029231    23.996902    4.5964823    1.5043809    6.1008632     4.587603 0.0088792916 
 2049000     1.000373    23.933273    4.5973536    1.5005557    6.0979093    4.5882699 0.0090837538 
 2052000    1.0020476     23.96065    4.5981401    1.5030677    6.1012077    4.5887471 0.0093929257 
 2055000    1.0009448    23.900462    4.5961757    1.5014135    6.0975892    4.5873328 0.0088429233 
 2058000    1.0007155    23.949101    4.5991149    1.5010695    6.1001844    4.5897659 0.0093489304 
 2061000   0.99929229    23.973448    4.5975973    1.4989347     6.096532    4.5880467 0.0095505768 
 2064000    1.0000095     23.94299    4.5982432    1.5000105    6.0982537    4.5888336 0.0094095447 
 2067000    1.0023336    23.949716    4.5963599    1.5034967    6.0998567    4.5866154 0.0097445351 
 2070000    0.9997044    23.892063    4.5966884    1.4995529    6.0962412    4.5871698 0.0095186196 
 2073000   0.99826315    23.927598    4.5960238     1.497391    6.0934147    4.5865465 0.0094772697 
 2076000    1.0008938    23.943708    4.5990598     1.501337    6.1003968    4.5896143 0.0094455094 
 2079000     0.999597    23.963314    4.5971217    1.4993917    6.0965135    4.5876016 0.0095201313 
 2082000    1.0024672    23.993126    4.5985195     1.503697    6.1022165    4.5886546 0.0098648987 
 2085000    1.0018496    24.003957    4.5972816    1.5027707    6.1000522    4.5883075 0.0089740813 
 2088000    1.0015786    23.951023    4.5959165    1.5023641    6.0982806    4.5867099 0.0092066012 
 2091000    1.0023677    23.896571     4.599681    1.5035478    6.1032287    4.5903244 0.0093565923 
 2094000    1.0010663    23.949705    4.5975816    1.5015957    6.0991774    4.5882534 0.0093281923 
 2097000    1.0026243    23.935895    4.5976596    1.5039327    6.1015923    4.5887963 0.0088633803 
 2100000    1.0018424    23.961912    4.5963885    1.5027599    6.0991484    4.5872586 0.0091299341 
 2103000    1.0006393    24.035078     4.595021    1.5009552    6.0959762    4.5854727 0.0095482619 
 2106000    1.0016389    23.964772     4.596748    1.5024546    6.0992026    4.5875383 0.0092096983 
 2109000     1.001439    23.908277    4.5965766    1.5021547    6.0987313    4.5868367 0.0097398423 
 2112000   0.99886507    23.900191    4.5975436    1.4982939    6.0958374    4.5881924 0.0093512082 
 2115000    1.0001993     23.95305    4.5954006    1.5002953    6.0956959    4.5860682 0.0093324118 
 2118000    1.0021237    23.914103    4.5959245    1.5031817    6.0991062    4.5864947 0.0094298293 
 2121000    1.0004129    23.997027    4.5962677    1.5006156    6.0968833    4.5869703 0.0092974841 
 2124000    1.0014311    23.962927    4.5960701    1.5021429     6.098213    4.5871178 0.0089522235 
 2127000    1.0023768    24.044032    4.5969975    1.5035615    6.1005589    4.5878454 0.0091520928 
 2130000    1.0025202    23.936814    4.5978949    1.5037765    6.1016713     4.588533 0.0093618848 
 2133000    1.0005105    23.998331    4.6002128     1.500762    6.1009748    4.5909085 0.0093043008 
 2136000    1.0018105    23.936894    4.5976423     1.502712    6.1003543    4.5879899 0.0096523728 
 2139000    1.0020412    23.930975    4.5981196     1.503058    6.1011776    4.5889895 0.0091300869 
 2142000    1.0010234    23.919829     4.597487    1.5015314    6.0990184    4.5878475 0.0096395325 
 2145000      1.00185    23.922702    4.5991313    1.5027712    6.1019025    4.5900178 0.0091135019 
 2148000   0.99945633    23.952496    4.5977865    1.4991807    6.0969673    4.5886451 0.0091414476 
 2151000    1.0003759    23.907813    4.5999487    1.5005601    6.1005088     4.590787  0.009161697 
 2154000    1.0009693    23.966739    4.5981502    1.5014502    6.0996004    4.5892389 0.0089112449 
 2157000   0.99975328    23.971184    4.5976171    1.4996262    6.0972433    4.5881004 0.0095166446 
 2160000    1.0026103    23.852035    4.5931787    1.5039118    6.0970904    4.5837437 0.0094349673 
 2163000   0.99759017     23.92338    4.5957759    1.4963815    6.0921574    4.5861721 0.0096038292 
 2166000   0.99816471    23.957124    4.5943445    1.4972433    6.0915878    4.5854906 0.0088538429 
 2169000    1.0003043    23.906024    4.5987575    1.5004527    6.0992102    4.5890396 0.0097178582 
 2172000    1.0001943    23.978955    4.5970676    1.5002877    6.0973553    4.5877438 0.0093238153 
 2175000    1.0001535    23.932315    4.5960334    1.5002265    6.0962598    4.5867909 0.0092424585 
 2178000    1.0014726    23.984926    4.5964857    1.5022051    6.0986908    4.5877321 0.0087536226 
 2181000       1.0015    23.956214    4.5962835    1.5022463    6.0985298    4.5872887 0.0089948021 
 2184000    1.0008623    23.936839     4.596641    1.5012897    6.0979307    4.5877012 0.0089398308 
 2187000    1.0032149    23.917634    4.5991193    1.5048185    6.1039378    4.5902736 0.0088456908 
 2190000    1.0007125    23.988828    4.5981587     1.501065    6.0992238    4.5880152  0.010143472 
 2193000    1.0003193    24.004278    4.5977993    1.5004752    6.0982745    4.5876592   0.01014013 
 2196000    1.0008124     23.88892    4.5963585    1.5012148    6.0975733    4.5872382 0.0091202804 
 2199000   0.99782068     23.94868    4.5970708    1.4967273    6.0937981     4.587824 0.0092468504 
 2202000    1.0013809    23.992218    4.5970018    1.5020676    6.0990694    4.5877588  0.009242982 
 2205000    1.0022158    23.919604    4.5969774    1.5033199    6.1002973    4.5879553 0.0090221111 
 2208000    1.0011378    24.018279    4.5956873    1.5017029    6.0973902    4.5867721 0.0089152477 
 2211000    1.0012285    23.995478     4.597832     1.501839     6.099671    4.5884113 0.0094206513 
 2214000    1.0006522    23.952923    4.5971352    1.5009746    6.0981098    4.5871875 0.0099476506 
 2217000     1.002505    23.942321    4.5956066    1.5037538    6.0993604    4.5863226 0.0092839997 
 2220000    1.0013001    24.017191    4.5971747    1.5019463     6.099121    4.5876282 0.0095465368 
 2223000     1.002003    23.919658    4.5991446    1.5030008    6.1021454    4.5896956 0.0094490777 
 2226000    1.0005738     23.96084    4.5980292     1.500857    6.0988862    4.5884811 0.0095480709 
 2229000   0.99921149    23.932165    4.5992377    1.4988135    6.0980512    4.5896724 0.0095653227 
 2232000   0.99959367    23.982783    4.5978583    1.4993868     6.097245    4.5884757 0.0093826221 
 2235000    1.0008663    23.981711    4.5974424    1.5012957    6.0987381    4.5877708 0.0096715555 
 2238000    1.0002592     23.93381    4.5957127     1.500385    6.0960977    4.5863398 0.0093729234 
 2241000    1.0017579    23.978613    4.5966734    1.5026332    6.0993066    4.5869528 0.0097206395 
 2244000   0.99956992    23.937202    4.5984562    1.4993511    6.0978073    4.5891207 0.0093354725 
 2247000   0.99973383    23.904722    4.5956001     1.499597    6.0951971    4.5866955 0.0089046436 
 2250000    1.0021905    23.952946    4.5963683     1.503282    6.0996503    4.5875866 0.0087817754 
 2253000    1.0000256    23.922187    4.5959994    1.5000346     6.096034    4.5864781 0.0095213245 
 2256000     1.000997    23.979093    4.5953323    1.5014918    6.0968241    4.5858572  0.009475099 
 2259000    1.0011234    24.003049    4.5980051    1.5016814    6.0996865    4.5883658 0.0096393387 
 2262000    1.0019296    23.986664    4.5961743    1.5028907     6.099065     4.586964 0.0092102364 
 2265000   0.99982777    23.971865    4.5965674    1.4997379    6.0963053    4.5880166 0.0085507768 
 2268000    1.0004987    24.010344    4.5970304    1.5007443    6.0977747     4.587886 0.0091444402 
 2271000    1.0010966    23.923804    4.5958721    1.5016412    6.0975134    4.5865231 0.0093490459 
 2274000    1.0008074    23.933178    4.5986028    1.5012074    6.0998102    4.5893392 0.0092635458 
 2277000    1.0003225    23.933062    4.5952839    1.5004801    6.0957639    4.5862689 0.0090149693 
 2280000   0.99831307    23.999276    4.5984208    1.4974659    6.0958867      4.58903 0.0093907591 
 2283000    1.0014078    24.011008    4.5982735     1.502108    6.1003815    4.5890592 0.0092142992 
 2286000    1.0002407    23.980829    4.5980833    1.5003573    6.0984406    4.5893427 0.0087406089 
 2289000    1.0021047     23.95297      4.59415    1.5031533    6.0973034    4.5854004 0.0087496194 
 2292000   0.99897655    23.995329    4.5969593    1.4984611    6.0954204    4.5879613 0.0089980054 
 2295000    1.0037358    23.979714    4.5967056    1.5055999    6.1023055    4.5872827 0.0094229208 
 2298000    1.0008396    23.976995    4.5950469    1.5012557    6.0963026    4.5863533 0.0086936619 
 2301000   0.99989827    23.971075    4.5967057    1.4998437    6.0965494    4.5875647 0.0091409834 
 2304000   0.99995203    23.959547    4.5975038    1.4999243    6.0974281    4.5882182 0.0092856144 
 2307000   0.99945162    23.944176    4.5964799    1.4991737    6.0956536    4.5868206 0.0096592838 
 2310000    1.0024639    23.918114    4.6010418    1.5036921    6.1047339    4.5913485 0.0096932961 
 2313000   0.99818489    23.845682     4.597381    1.4972736    6.0946546    4.5880492 0.0093317864 
 2316000    1.0020962    23.952313    4.5991832    1.5031405    6.1023237      4.58987 0.0093132341 
 2319000    1.0004531    23.967633    4.5979525     1.500676    6.0986284    4.5887932 0.0091592486 
 2322000    1.0022649    23.952106    4.5973327    1.5033936    6.1007263      4.58863 0.0087027363 
 2325000    1.0005337    24.016619    4.5950808    1.5007969    6.0958776    4.5858743 0.0092064707 
 2328000    1.0015907     23.93567    4.5961529    1.5023823    6.0985353    4.5870588 0.0090941716 
 2331000    1.0002577    24.013159    4.5966765    1.5003828    6.0970593    4.5876425 0.0090339519 
[...]
 5202000   0.99815178    23.952156    4.5944461    1.4972239      6.09167    4.5854883 0.0089577369     23.13579    15.490348    52.985074 
 5208000    1.0005121    23.932005    4.5941412    1.5007644    6.0949055    4.5847657  0.009375459    5.4770999    20.776571    36.013249 
 5214000   0.99985763    23.904588    4.5936965    1.4997827    6.0934792    4.5844432 0.0092532902    33.318936    13.523587    64.255829 
 5220000    1.0012889    23.985942    4.5952779    1.5019297    6.0972076    4.5858434 0.0094345371    10.756412    17.789646     39.15781 
 5226000    1.0006223    23.959055    4.5959426    1.5009297    6.0968723    4.5869237 0.0090189672    15.190987    16.205552    43.067933 
 5232000    1.0012373    23.951405    4.5949248    1.5018522     6.096777     4.585582  0.009342781    2.4745965    28.677289    42.732333 
 5238000    1.0026336    23.912334     4.595055    1.5039466    6.0990016    4.5851757 0.0098793351    23.556231    22.880587    63.699308 
 5244000    1.0015169    23.925125    4.5946757    1.5022716    6.0969473    4.5853952 0.0092804597    9.2596411    20.513098    40.840499 
 5250000   0.99902999    24.003655    4.5981351    1.4985412    6.0966764    4.5887975 0.0093375975    3.0006394    49.851662     64.26749 
 5256000      1.00104    23.906996    4.5943212    1.5015562    6.0958774    4.5852364 0.0090848342    9.1603676    16.098315    34.648381 
 5262000    1.0002606    23.895294     4.596396    1.5003871    6.0967831    4.5871132 0.0092827458    11.120534    16.388799    7.2266966 
 5268000    1.0021311    23.886103     4.595193     1.503193     6.098386    4.5856881 0.0095049256    12.663362    13.749329    36.231383 
 5274000    1.0023244    23.913645    4.5939518    1.5034828    6.0974347    4.5843199  0.009631957    18.020531    38.103858     76.98815 
 5280000    1.0011757    24.029292    4.5967189    1.5017598    6.0984787    4.5869416 0.0097772748    12.453383    47.401574    82.105524 
 5286000    1.0007039    23.901102    4.5964442    1.5010521    6.0974963    4.5875479 0.0088962585    7.5675128    25.799367     25.00939 
 5292000    1.0008101    23.993636    4.5968254    1.5012113    6.0980368    4.5874398 0.0093856111    8.5497754     29.62081    52.360174 
 5298000   0.99961224    23.947874    4.5939459    1.4994146    6.0933606    4.5847073 0.0092386787    7.3089677    33.028293    55.332292 
 5304000    1.0002681    23.879679    4.5987789    1.5003984    6.0991773    4.5893288 0.0094500911     13.75119    19.175168    45.166451 
 5310000   0.99840754    24.000013    4.5950165    1.4976076    6.0926241    4.5851476  0.009868898    19.451383    2.2968662    29.832974 
 5316000    1.0025849    23.964332     4.594679    1.5038736    6.0985525    4.5850833  0.009595707    15.833817    1.7540704    24.126033 
 5322000    1.0006306    23.987165    4.5950962    1.5009421    6.0960384    4.5851133  0.009982951   0.26376815    41.634386    57.473434 
 5328000    0.9994424    23.888844     4.594853    1.4991599    6.0940128    4.5859271 0.0089258463    12.987543    53.067628    90.610615 
 5334000    1.0020411    23.905241    4.5984407    1.5030579    6.1014986    4.5885448 0.0098959269    21.128811    6.5255521    20.031896 
 5340000    1.0001819    23.926644      4.59561     1.500269    6.0958791    4.5860853 0.0095247705    8.3985095    35.972811    60.865979 
 5346000    1.0005244    23.982336    4.5962049    1.5007828    6.0969877    4.5871544 0.0090504943   0.86683562    19.427561    27.838664 
 5352000    1.0011835    23.932696    4.5935391    1.5017715    6.0953106    4.5840373 0.0095018871    16.281575    16.251279    44.626663 
 5358000     1.000786    23.940194     4.595341    1.5011753    6.0965163    4.5859947 0.0093462957    7.1690258    18.491119    35.199084 
 5364000    1.0013376    23.999175    4.5949179    1.5020026    6.0969205    4.5854171 0.0095007908    36.784433    4.3469854     56.42167 
 5370000    1.0011603    23.961538    4.5926582    1.5017367     6.094395     4.583704 0.0089542814    7.8809078    18.588187    36.308754 
 5376000    1.0027736    23.995937     4.595522    1.5041566    6.0996785    4.5864961 0.0090258299    11.385989    25.690966    50.859996 
 5382000    1.0006858    23.977961    4.5920455    1.5010249    6.0930704    4.5827474 0.0092980922    11.347133    28.285842    54.366194 
 5388000    1.0002868    23.938563    4.5941342    1.5004264    6.0945606    4.5847429 0.0093913359    6.6307218    25.121868    43.556344 
 5394000    1.0016345    23.989912    4.5956673     1.502448    6.0981154    4.5859226 0.0097447209    18.765918    18.863089    51.617269 
 5400000    1.0012791    23.898112    4.5946151    1.5019149      6.09653    4.5855365 0.0090786086    28.812001    6.5064924     30.59739 
 5406000    1.0024876    23.900931    4.5965938    1.5037277    6.1003215    4.5871047 0.0094890763    22.036413    0.4351033    29.631411 
 5412000    1.0020025    23.996441     4.591264        1.503     6.094264    4.5826126 0.0086514754    6.2753768    9.2100082    21.241944 
 5418000    1.0008657    23.997842    4.5932086    1.5012948    6.0945034    4.5835678 0.0096408101    41.831151    15.162696    78.180822 
 5424000    1.0025485    23.851063    4.5935535     1.503819    6.0973725     4.584929 0.0086244877    22.071989    14.057034    49.559678 
 5430000     1.002484    23.917058    4.5932877    1.5037222    6.0970099    4.5837914 0.0094963138    21.759708    29.725205    70.623988 
 5436000    1.0012956    23.959889    4.5923863    1.5019396    6.0943259    4.5830547 0.0093315904    6.2970299    7.3680789    18.744996 
 5442000   0.99993798    23.957474    4.5963187    1.4999032    6.0962219    4.5868359 0.0094828648    19.589671    22.835852    58.196847 
 5448000   0.99987483    23.949412    4.5935391    1.4998085    6.0933476    4.5845842 0.0089549584    13.370118    23.720701    50.879013 
 5454000   0.99929973    23.915471      4.59433    1.4989458    6.0932758    4.5849168  0.009413154    4.0562366    14.036438    24.818471 
 5460000    1.0025749    23.961741    4.5954046    1.5038586    6.0992632    4.5860806 0.0093240295    26.672378    10.096622    50.437561 
 5466000    1.0017417    24.005294     4.594204    1.5026088    6.0968127    4.5850687 0.0091353083    15.101108   0.84914504    21.879623 
 5472000    1.0004353    23.942776    4.5966746    1.5006492    6.0973238    4.5868184 0.0098561974    6.5738117    35.526942    57.751348 
 5478000    1.0009146    23.905175     4.594326    1.5013682    6.0956942    4.5853676 0.0089584152    10.699616    25.741775    49.988167 
 5484000    1.0009935    23.886645    4.5966517    1.5014865    6.0981382    4.5873555 0.0092962585    26.136356    8.8412802    23.724372 
 5490000    1.0016572    23.988271    4.5938076    1.5024821    6.0962897    4.5842682 0.0095393281    1.6792707    24.873787    31.816879 
 5496000    1.0008504    23.879369    4.5934526    1.5012719    6.0947244    4.5842897 0.0091628426    16.592857    21.119445    51.731527 
 5502000    1.0024882    23.944874    4.5947086    1.5037285    6.0984372    4.5852567 0.0094519033    30.429457    12.707576    59.172856 
 5508000    1.0002704    23.964895    4.5931395    1.5004019    6.0935413    4.5843088 0.0088306897    15.943209    14.725086    42.068971 
 5514000   0.99838721    23.993096    4.5961859    1.4975771     6.093763    4.5876334 0.0085524633    4.8688562    6.5666631    15.686576 
 5520000    1.0010061    23.887914    4.5930649    1.5015054    6.0945703    4.5836057 0.0094592242    11.437744    18.265873    40.745681 
 5526000    1.0010813    23.935147    4.5958896    1.5016182    6.0975078    4.5868251 0.0090645428    35.450882    11.731524    64.722062 
 5532000   0.99965354    23.974211    4.5936833    1.4994766    6.0931599    4.5841508 0.0095325286    18.614309    17.896982    50.084051 
 5538000    1.0006153    23.938537    4.5948721    1.5009192    6.0957913    4.5856788 0.0091932739    28.878799    5.1162621    46.632434 
 5544000    1.0008568    23.983035    4.5939963    1.5012815    6.0952779     4.584538 0.0094583179    29.041088   0.30277025    40.252187 
 5550000   0.99886206    23.924769    4.5941744    1.4982893    6.0924638    4.5849362 0.0092382482    5.8237765    34.015964    38.672392 
 5556000    1.0035783    23.920008    4.5967369    1.5053638    6.1021006     4.587504 0.0092328805      20.2973    30.919269     70.25589 
 5562000    1.0003696    23.904228    4.5948871    1.5005507    6.0954377    4.5860932 0.0087938676     12.45291    15.108905    37.807684 
 5568000    1.0012114    23.842352    4.5960839    1.5018134    6.0978973    4.5871218 0.0089620384    9.0874497     30.99797    54.986831 
 5574000    1.0036113    23.948914    4.5937839    1.5054132    6.0991971    4.5843873 0.0093965681    21.658995    13.749976    48.571953 
 5580000    1.0033444    23.935642    4.5953318    1.5050128    6.1003446    4.5856653 0.0096664587    30.060763     11.48224    56.986259 
 5586000    1.0003455    23.942121    4.5951616    1.5005144    6.0956761    4.5858886 0.0092730484    23.455716    25.180167    66.715857 
 5592000     1.002079    23.925646    4.5931444    1.5031147    6.0962591    4.5836678 0.0094766533    11.188151    19.874877    42.610443 
 5598000    1.0012419    23.955265    4.5961813    1.5018592    6.0980405    4.5868262  0.009355135    19.367769    1.8716895    24.000098 
 5604000    1.0009919    23.979877    4.5940066    1.5014841    6.0954907    4.5851705 0.0088360865    12.737271    23.783811    50.097482 
 5610000    1.0031995    23.980729    4.5967381    1.5047955    6.1015336    4.5876611 0.0090769483   0.98042529    13.271993    19.550633 
 5616000   0.99971653     23.96949    4.5948974     1.499571    6.0944685    4.5852791 0.0096183216    19.827921    28.517524    66.317451 
 5622000    1.0008465    23.940909    4.5940671     1.501266    6.0953331    4.5851297 0.0089374299    15.047631    16.676613     43.51746 
 5628000   0.99867837    23.922292    4.5959459    1.4980138    6.0939598     4.586364  0.009581933    2.9882519    44.145772    56.457475 
 5634000    1.0007425    23.909051    4.5968601    1.5011101    6.0979702    4.5868813 0.0099787938    14.331357    13.230865    37.808242 
 5640000   0.99934786    23.950818    4.5957762     1.499018    6.0947943    4.5871555 0.0086206805    23.962152    15.097378    53.579575 
 5646000    1.0022679    23.905821    4.5932842    1.5033982    6.0966824     4.584049 0.0092352691    14.784597    24.151775    53.410636 
 5652000   0.99905354    23.924394    4.5950807    1.4985766    6.0936572    4.5854571  0.009623535     24.49019    23.655204    66.043031 
 5658000   0.99964123    23.902753    4.5940763    1.4994581    6.0935344    4.5849096 0.0091666822    3.2207509    33.427912     50.27249 
 5664000    1.0004415    24.007505    4.5963461    1.5006585    6.0970045     4.586773 0.0095731016    29.674828     6.862033    50.119126 
 5670000    1.0006989    23.904673     4.595121    1.5010446    6.0961656    4.5858557 0.0092653333     25.87248    5.4842756    43.013361 
 5676000    1.0017059    23.968006    4.5944611     1.502555    6.0970161    4.5850988 0.0093623371    16.089696    10.053734    35.862026 
 5682000   0.99960363    23.924307    4.5967598    1.4994017    6.0961615    4.5873832 0.0093765657    1.8960755    36.749472    53.011699 
 5688000    1.0005695    23.963121    4.5972163    1.5008504    6.0980667    4.5876079 0.0096083331    22.658416     1.502076    29.021028 
 5694000    1.0001649    23.854943    4.5945194    1.5002436     6.094763    4.5848499 0.0096695258    10.472726    21.718426    44.157938 
 5700000    1.0002557    23.902825    4.5939102    1.5003798      6.09429    4.5848842 0.0090259645    18.544125    4.8089356    18.841128 
 5706000     1.000832    23.963696    4.5975169    1.5012442    6.0987611    4.5879464 0.0095704384    20.612424    28.822458    67.811876 
 5712000    0.9994676    23.923301    4.5947477    1.4991977    6.0939453     4.586109  0.008638662     40.66307    13.088977     73.73391 
 5718000    1.0027201    24.023937    4.5949492    1.5040763    6.0990255    4.5851861 0.0097630529    18.652166    14.212812    45.082251 
 5724000    1.0028721     23.86059    4.5942337    1.5043044    6.0985381    4.5847988 0.0094349065    27.225808    2.5788808    33.809211 
 5730000    1.0010224    23.922404    4.5926004    1.5015298    6.0941302    4.5838952 0.0087051982     13.85193    24.642306    52.804139 
 5736000    1.0019317    23.919448      4.59616    1.5028938    6.0990538     4.586774 0.0093860657    16.351278    4.7936268    29.005342 
 5742000    1.0012455    23.957527    4.5931052    1.5018645    6.0949697    4.5839188 0.0091863615    33.211986    2.2620126    42.455361 
 5748000   0.99983194    23.925888    4.5939023    1.4997442    6.0936465    4.5847452 0.0091570763    9.0177271    1.7167829    14.724972 
 5754000   0.99936223    23.927775    4.5950841    1.4990396    6.0941237    4.5855459 0.0095382219    33.896718    21.785652    76.381814 
 5760000    1.0036766    23.966386     4.595274    1.5055111    6.1007851    4.5864631 0.0088108978    7.8048216    19.733702    37.775734 
 5766000   0.99999328    23.916598    4.5949016    1.4999862    6.0948878    4.5856462 0.0092554301     12.68957    24.429422    50.917659 
 5772000    1.0042274    23.938223    4.5942053    1.5063373    6.1005426    4.5842816 0.0099236996    9.8345949    4.0928514    19.104855 
 5778000    1.0006235     23.95739    4.5935619    1.5009315    6.0944934     4.583928 0.0096338292    11.873418    18.762896    42.025101 
 5784000    1.0015521    23.881801    4.5950968    1.5023244    6.0974212    4.5858348  0.009261961    20.744307    13.321458    46.729421 
 5790000    1.0025201     23.88515    4.5936688    1.5037764    6.0974452    4.5842585 0.0094103277    11.919093    6.3808715     25.10282 
 5796000    1.0008026    23.877818    4.5927343    1.5012002    6.0939345    4.5829716 0.0097626897    28.912933    15.883946    61.449734 
 5802000    1.0004516    23.847531    4.5947962    1.5006737    6.0954699    4.5856123 0.0091838821    25.756262    10.640514    49.926965 
 5808000   0.99957862    24.038175    4.5939816    1.4993642    6.0933458    4.5853851 0.0085965182    6.7479649    28.587942    48.471728 
 5814000    1.0004506    23.918716    4.5959526    1.5006721    6.0966247    4.5868684 0.0090842707    51.070079    15.507447    48.782736 
 5820000   0.99838267    23.900908    4.5953005    1.4975703    6.0928707    4.5854942 0.0098063079    6.4822983    23.500078    41.128068 
 5826000    1.0046075     23.92689    4.5924781    1.5069075    6.0993856    4.5830035 0.0094745662     7.691829    20.544858    17.631032 
 5832000    1.0040614    23.923821    4.5940647    1.5060884    6.1001531    4.5848481 0.0092166356    13.704922    10.002085    32.519883 
 5838000   0.99987739    23.836432     4.596474    1.4998123    6.0962863    4.5865767 0.0098972513    12.478631    18.774853    42.871699 
 5844000    1.0025441    23.900785    4.5942448    1.5038123    6.0980572    4.5847216 0.0095232044    4.8886789    20.356252    34.629518 
 5850000     1.001759    23.880796    4.5942768    1.5026347    6.0969115    4.5847257 0.0095510919  0.076840028    28.663921    39.424892 
 5856000    1.0023864    23.980545    4.5952764    1.5035758    6.0988522    4.5860864 0.0091899815      14.8887    33.838324    66.840878 
 5862000    1.0027945    23.958586    4.5955235     1.504188    6.0997116    4.5857482  0.009775318    17.620178   0.36029645    24.664562 
 5868000    1.0017395    23.942763    4.5960452    1.5026056    6.0986508    4.5864118 0.0096334052   0.15573296   0.53648521   0.94954434 
 5874000     1.001091    23.918992    4.5949902    1.5016327     6.096623    4.5849373  0.010052916     22.33543    24.188071    63.818215 
 5880000   0.99855838    23.927108    4.5958855    1.4978338    6.0937194    4.5862494 0.0096361123    11.698137     4.400067    22.082574 
 5886000    1.0011894     23.93927    4.5926611    1.5017804    6.0944415    4.5832077 0.0094534731    8.4974259    36.130723    61.218282 
 5892000   0.99980601    23.910528    4.5959973    1.4997053    6.0957025    4.5863312 0.0096661165    7.4648032    21.534323    39.779303 
 5898000    1.0025948    23.905455    4.5947934    1.5038885    6.0986819    4.5851123 0.0096811077    14.962282    26.482851    56.852007 
 5904000    1.0004006    23.943841    4.5942307    1.5005971    6.0948278    4.5842902 0.0099404937    18.572304     16.57732    48.216195 
 5910000    1.0004789    23.869132    4.5948357    1.5007145    6.0955503    4.5854318 0.0094039386     32.15236     11.40371    59.747667 
 5916000    1.0024444    23.944682    4.5961779    1.5036628    6.0998407    4.5872284 0.0089494982    24.239665    10.512872    47.671495 
 5922000    1.0016024    23.975113    4.5938809    1.5023998    6.0962807    4.5847693 0.0091115777    15.210502    28.600348    60.097158 
 5928000    1.0005382    23.976263    4.5956243    1.5008036    6.0964279    4.5865296  0.009094701    15.655992    16.755015    44.459521 
 5934000    1.0005255    23.906522     4.597324    1.5007845    6.0981085    4.5885402 0.0087837457    19.983068    11.490667    43.173826 
 5940000   0.99816988    23.861234    4.5910424    1.4972511    6.0882935    4.5818211 0.0092213486    19.615983    25.797204     62.29515 
 5946000    0.9995931    23.989436     4.596023    1.4993859    6.0954089    4.5866405   0.00938249    20.234609     7.187097    37.615491 
 5952000    1.0004406    23.931195     4.592943    1.5006571    6.0936001    4.5835124 0.0094306727    21.196334    28.355992    67.972979 
 5958000    1.0014504    23.946916    4.5954817    1.5021718    6.0976535    4.5863297 0.0091520519     30.24789    4.4715159    35.358521 
 5964000    1.0007978    23.962314    4.5929424    1.5011929    6.0941353    4.5841553 0.0087870829    9.4147879    36.320707    62.737273 
 5970000    1.0015639      23.9114    4.5948311    1.5023422    6.0971733    4.5855425 0.0092885698    8.8135256    10.592958    26.620678 
 5976000    1.0001134    23.902675    4.5943187    1.5001663     6.094485    4.5845036 0.0098151625    15.488241     19.16064    47.529306 
 5982000     1.002973    23.988561     4.595593    1.5044557    6.1000488    4.5862046 0.0093883763    5.9486458    20.945559    36.891896 
 5988000    1.0024061    23.963364    4.5936578    1.5036054    6.0972632    4.5843603  0.009297558    43.784966    3.1400925    64.369046 
 5994000   0.99999534     23.97557    4.5946587    1.4999893     6.094648    4.5853279 0.0093307927     18.59379    16.637755     48.32857 
 6000000    1.0004849    23.899067    4.5953391    1.5007236    6.0960627    4.5856761 0.0096629976    11.234681    9.7934666    28.845182 
Loop time of 286557 on 24 procs for 6000000 steps with 400312 atoms

Performance: 3618.130 tau/day, 20.938 timesteps/s
98.4% CPU use with 24 MPI tasks x no OpenMP threads

MPI task timing breakdown:
Section |  min time  |  avg time  |  max time  |%varavg| %total
---------------------------------------------------------------
Pair    | 1.804e+05  | 1.889e+05  | 1.9824e+05 |1609.2 | 65.92
Bond    | 5978.5     | 7140.6     | 7937.1     | 573.9 |  2.49
Neigh   | 7056.8     | 7063.2     | 7067.1     |   4.0 |  2.46
Comm    | 11673      | 21395      | 30873      |5033.6 |  7.47
Output  | 0.18039    | 0.18193    | 0.20898    |   1.3 |  0.00
Modify  | 57602      | 57958      | 58336      |  80.6 | 20.23
Other   |            | 4100       |            |       |  1.43

Nlocal:    16679.7 ave 16883 max 16480 min
Histogram: 3 4 4 1 0 0 2 4 3 3
Nghost:    23812.3 ave 23950 max 23609 min
Histogram: 1 2 3 1 5 0 0 1 3 8
Neighs:    2.8233e+06 ave 2.90615e+06 max 2.73746e+06 min
Histogram: 6 5 1 0 0 0 0 1 6 5

Total # of neighbors = 67759089
Ave neighs/atom = 169.266
Ave special neighs/atom = 0.00701453
Neighbor list builds = 60612
Dangerous builds = 0
Total wall time: 104:44:52
