ITEM: TIMESTEP
0
ITEM: NUMBER OF ATOMS
168
ITEM: BOX BOUNDS pp pp pp
-2.2993764899999999e+01 2.2993764899999999e+01
-2.2993764899999999e+01 2.2993764899999999e+01
-3.1541500100000000e+01 3.1541500100000000e+01
ITEM: ATOMS id mol type x y z 
400072 400003 3 -22.7588 -22.5472 -20.8169 
400071 400003 3 -22.1303 -22.0374 -20.7442 
400066 400003 3 -21.413 -22.3305 -20.5175 
400034 400002 3 -0.387023 -17.0316 -20.814 
400035 400002 3 -0.440417 -16.2301 -20.99 
400058 400003 3 -19.9907 -22.9549 -20.4455 
400057 400003 3 -20.0021 -22.177 -20.4619 
400243 400010 3 -19.2286 -22.5144 12.1972 
400251 400010 3 -18.5491 -22.0968 12.0649 
400250 400010 3 -17.8359 -22.4998 12.0856 
400255 400010 3 -17.1823 -22.113 12.2309 
400254 400010 3 -16.5022 -22.5576 12.224 
400123 400005 3 -1.05556 -22.934 12.1164 
400124 400005 3 -1.11809 -22.1621 12.0142 
400125 400005 3 -0.486704 -21.7023 11.7866 
400257 400010 3 -17.7986 -20.9517 11.9681 
400256 400010 3 -17.1773 -21.3467 12.1721 
400127 400005 3 -0.00111664 -20.3849 11.6297 
400126 400005 3 -0.5689 -20.9436 11.604 
400092 400004 3 -1.70026 -9.34615 11.2187 
400098 400004 3 -3.03174 -9.88829 11.2819 
400097 400004 3 -2.28549 -9.9433 11.3308 
400100 400004 3 -4.10895 -8.90892 11.2203 
400099 400004 3 -3.34902 -9.11166 11.2898 
400101 400004 3 -4.40785 -8.19908 11.2612 
400095 400004 3 -3.14661 -7.74445 11.4414 
400094 400004 3 -2.8285 -8.50108 11.3625 
400093 400004 3 -2.05928 -8.6458 11.321 
400085 400004 3 -1.54281 -8.05903 11.4538 
400083 400004 3 -0.381408 -8.92835 11.2371 
400084 400004 3 -0.753765 -8.24262 11.4281 
400269 400011 3 -4.89921 -2.19708 -20.5357 
400268 400011 3 -4.13653 -2.14011 -20.6388 
400283 400011 3 -6.55888 -0.926905 -20.6445 
400282 400011 3 -6.15532 -0.214892 -20.6079 
400277 400011 3 -5.3486 -1.53231 -20.5704 
400276 400011 3 -4.93279 -0.822542 -20.5876 
400267 400011 3 -3.6959 -1.48332 -20.6367 
400275 400011 3 -4.10952 -0.811328 -20.5404 
400266 400011 3 -2.94714 -1.39492 -20.6962 
400265 400011 3 -2.51292 -0.752814 -20.5443 
400281 400011 3 -5.37479 -0.203204 -20.4775 
400274 400011 3 -3.72348 -0.121194 -20.398 
400280 400011 3 -4.99334 0.470297 -20.3258 
400279 400011 3 -4.22123 0.458347 -20.305 
400087 400004 3 -2.63913 -7.18483 11.721 
400086 400004 3 -1.89221 -7.37684 11.5391 
400309 400012 3 -8.3669 2.1518 12.0584 
400308 400012 3 -7.62135 1.92096 11.9117 
400306 400012 3 -6.20374 2.12634 11.7643 
400307 400012 3 -6.93437 2.36283 11.8933 
400305 400012 3 -5.58002 2.60635 11.8626 
400303 400012 3 -7.80757 3.44642 12.0449 
400295 400012 3 -7.87523 4.28296 12.1461 
400302 400012 3 -7.04992 3.14685 11.938 
400301 400012 3 -6.38986 3.61839 11.9372 
400293 400012 3 -6.48409 4.36426 12.1312 
400300 400012 3 -5.64183 3.37619 11.8186 
400294 400012 3 -7.1735 4.65596 12.2695 
400291 400012 3 -5.07232 4.65548 12.0359 
400292 400012 3 -5.83522 4.82883 12.2353 
400201 400008 3 -22.9369 10.4954 -20.5064 
400153 400006 3 -22.1349 19.7141 -20.6688 
400152 400006 3 -21.3275 19.5162 -20.6075 
400147 400006 3 -21.5867 21.0596 -20.5797 
400061 400003 3 -21.2428 21.2702 -20.7103 
400139 400006 3 -21.736 21.8469 -20.6849 
400073 400003 3 -22.6999 22.6886 -20.7613 
400068 400003 3 -21.9954 22.4252 -20.5762 
400069 400003 3 -22.0015 21.5904 -20.5573 
400059 400003 3 -20.619 22.5631 -20.5763 
400138 400006 3 -21.1404 22.3423 -20.5249 
400060 400003 3 -20.6228 21.7866 -20.5874 
400067 400003 3 -21.3541 22.8593 -20.5581 
400196 400008 3 -22.8572 11.2522 -20.3405 
400188 400008 3 -22.6584 12.8407 -20.4 
400187 400008 3 -22.0551 12.4005 -20.4963 
400150 400006 3 -20.0156 19.7495 -20.3247 
400151 400006 3 -20.7341 20.0288 -20.4246 
400145 400006 3 -20.2119 21.2866 -20.3452 
400146 400006 3 -20.8451 20.8193 -20.4958 
400149 400006 3 -19.3525 20.2372 -20.1324 
400144 400006 3 -19.4835 21.0283 -20.0975 
400137 400006 3 -20.4114 22.0626 -20.4187 
400136 400006 3 -19.7975 22.5783 -20.4686 
400135 400006 3 -19.1088 22.3547 -20.2695 
400239 400010 3 -17.7244 21.047 11.7236 
400242 400010 3 -19.111 22.7374 12.0821 
400241 400010 3 -18.4525 22.2794 12.0352 
400240 400010 3 -18.3407 21.4906 12.0018 
400248 400010 3 -17.0855 22.2654 11.8638 
400249 400010 3 -17.7563 22.6949 12.0532 
400253 400010 3 -16.4557 22.6985 11.9137 
400118 400005 3 -0.340002 22.7469 11.8862 
400175 400007 3 9.87426 -20.1765 -20.8286 
400161 400007 3 11.9452 -19.9966 -20.7845 
400031 400002 3 1.05723 -18.6697 -20.7577 
400177 400007 3 9.22534 -18.9131 -20.5211 
400176 400007 3 9.27062 -19.7121 -20.5472 
400172 400007 3 9.92266 -18.5929 -20.7286 
400171 400007 3 10.5553 -19.0532 -20.8633 
400170 400007 3 10.5633 -19.85 -20.9376 
400163 400007 3 11.2859 -18.7331 -20.6233 
400162 400007 3 11.8787 -19.2342 -20.6072 
400033 400002 3 0.336092 -17.4416 -20.9049 
400032 400002 3 0.409041 -18.2358 -20.9153 
400041 400002 3 1.02138 -17.0596 -20.8925 
400040 400002 3 1.67732 -17.4684 -20.7624 
400045 400002 3 2.35109 -17.0794 -20.8689 
400173 400007 3 9.92318 -17.7817 -20.6362 
400165 400007 3 10.6814 -17.4495 -20.6575 
400164 400007 3 11.29 -17.9258 -20.5367 
400043 400002 3 0.282723 -15.8931 -20.8652 
400042 400002 3 1.03029 -16.249 -20.842 
400047 400002 3 1.69437 -15.8565 -20.7642 
400046 400002 3 2.3445 -16.2738 -20.7826 
400049 400002 3 0.947825 -14.5924 -20.91 
400048 400002 3 1.62847 -15.049 -20.789 
400178 400007 3 8.60815 -18.4722 -20.2076 
400179 400007 3 8.59284 -17.6864 -20.3452 
400120 400005 3 0.251158 -22.0339 11.7882 
400119 400005 3 0.312796 -22.7919 11.8601 
400113 400005 3 1.46582 -21.8049 11.928 
400121 400005 3 0.798639 -21.5014 11.7052 
400112 400005 3 1.56229 -22.6186 12.0194 
400202 400008 3 22.3529 10.2093 -20.515 
400205 400008 3 20.2217 10.7732 -20.5069 
400213 400009 3 9.67184 17.9756 -21.0477 
400214 400009 3 10.4208 17.7716 -21.0804 
400023 400001 3 10.3916 17.55 -20.663 
400021 400001 3 11.7087 17.969 -20.659 
400216 400009 3 11.838 18.1354 -20.8329 
400022 400001 3 11.134 17.3861 -20.6053 
400215 400009 3 11.0585 18.224 -20.9547 
400020 400001 3 12.484 17.7765 -20.5719 
400019 400001 3 13.0034 18.3568 -20.5414 
400222 400009 3 10.1642 19.2263 -20.8341 
400009 400001 3 10.5572 19.6974 -20.8217 
400017 400001 3 10.716 18.9383 -20.5995 
400016 400001 3 11.5181 18.7432 -20.6606 
400223 400009 3 10.9112 19.0391 -20.8583 
400224 400009 3 11.453 19.6058 -20.6786 
400015 400001 3 12.0801 19.3014 -20.8448 
400217 400009 3 12.4207 18.6836 -20.7795 
400014 400001 3 12.8539 19.0832 -20.7461 
400227 400009 3 9.95078 19.9497 -20.6388 
400228 400009 3 10.4719 20.5508 -20.6952 
400007 400001 3 11.9037 20.0413 -20.9989 
400008 400001 3 11.1171 20.2538 -20.9425 
400229 400009 3 11.2159 20.3598 -20.8096 
400230 400009 3 11.7899 20.899 -21.008 
400006 400001 3 12.5355 20.534 -21.1704 
400005 400001 3 13.3138 20.4162 -21.0092 
400231 400009 3 12.551 20.795 -20.7926 
400075 400003 3 22.5594 21.441 -20.7372 
400074 400003 3 22.5911 22.2548 -20.7971 
400204 400008 3 20.9172 10.3402 -20.4573 
400203 400008 3 21.6983 10.6184 -20.4653 
400199 400008 3 21.0867 11.9071 -20.3711 
400197 400008 3 22.4631 11.7142 -20.3078 
400198 400008 3 21.7613 11.4037 -20.3291 
400191 400008 3 21.1781 12.6775 -20.3773 
400190 400008 3 21.9197 12.8926 -20.2477 
400189 400008 3 22.5714 12.5029 -20.2586 
400225 400009 3 12.1802 19.4345 -20.4839 
400109 400005 3 0.536991 21.5479 11.92 
400110 400005 3 1.09677 22.0261 12.1337 
400111 400005 3 1.00915 22.8268 12.0483 
ITEM: TIMESTEP
3000000
ITEM: NUMBER OF ATOMS
168
ITEM: BOX BOUNDS pp pp pp
-2.2993764899999999e+01 2.2993764899999999e+01
-2.2993764899999999e+01 2.2993764899999999e+01
-3.1541500100000000e+01 3.1541500100000000e+01
ITEM: ATOMS id mol type x y z 
400274 400011 3 -10.1124 -22.8372 -20.353 
400268 400011 3 -11.7668 -21.7675 -20.9186 
400267 400011 3 -11.2945 -22.4186 -20.949 
400279 400011 3 -9.31491 -22.6733 -20.1637 
400275 400011 3 -10.5335 -22.2287 -20.663 
400276 400011 3 -10.2075 -21.484 -20.7398 
400281 400011 3 -9.42119 -21.3312 -20.5345 
400280 400011 3 -8.95093 -22.0147 -20.3852 
400213 400009 3 -8.50702 -22.6167 -20.7825 
400269 400011 3 -11.5669 -20.9936 -20.9347 
400277 400011 3 -10.755 -20.8906 -20.8744 
400023 400001 3 -9.15966 -22.7683 -20.6715 
400283 400011 3 -9.68548 -20.0219 -20.8654 
400282 400011 3 -9.20084 -20.6087 -20.5621 
400251 400010 3 -0.155892 -13.8935 11.288 
400257 400010 3 -0.89434 -15.0462 11.1027 
400255 400010 3 -1.57201 -13.7762 11.2021 
400256 400010 3 -1.49655 -14.5512 11.0149 
400254 400010 3 -2.26141 -13.3732 11.487 
400253 400010 3 -2.10405 -12.6235 11.7583 
400250 400010 3 -0.847611 -13.4431 11.3272 
400249 400010 3 -0.786236 -12.672 11.6244 
400248 400010 3 -1.43874 -12.1973 11.6287 
400239 400010 3 -0.68078 -11.0955 11.6282 
400073 400003 3 -19.6596 7.44456 -20.8469 
400071 400003 3 -21.0042 6.89402 -20.7448 
400201 400008 3 -21.0972 7.34942 -20.7261 
400072 400003 3 -20.2377 6.92862 -21.0239 
400188 400008 3 -18.6592 7.18071 -20.6159 
400074 400003 3 -18.8914 7.33199 -20.7833 
400196 400008 3 -20.2989 7.25139 -20.6247 
400187 400008 3 -19.1229 6.54234 -20.4429 
400066 400003 3 -21.2842 7.60876 -20.4823 
400112 400005 3 -21.9092 -2.92045 12.0414 
400113 400005 3 -21.1255 -3.13955 12.0112 
400111 400005 3 -22.3282 -2.2827 11.8032 
400119 400005 3 -21.8336 -1.69576 11.7099 
400121 400005 3 -20.6512 -2.52465 11.8063 
400120 400005 3 -21.0155 -1.79388 11.7862 
400127 400005 3 -19.4338 -2.02025 11.8177 
400118 400005 3 -22.1259 -0.964245 11.4795 
400123 400005 3 -21.6618 -0.346426 11.7176 
400125 400005 3 -20.5498 -1.1725 11.8583 
400124 400005 3 -20.9157 -0.434867 11.9069 
400126 400005 3 -19.7291 -1.27984 11.8772 
400075 400003 3 -18.4228 7.9448 -20.5775 
400057 400003 3 -22.4582 8.41612 -20.5145 
400058 400003 3 -21.9262 8.94488 -20.6111 
400202 400008 3 -21.3443 8.00458 -21.0942 
400059 400003 3 -21.1631 8.98521 -20.6816 
400067 400003 3 -20.8297 8.26114 -20.6033 
400197 400008 3 -19.8207 7.85074 -20.774 
400198 400008 3 -20.1348 8.57456 -20.8176 
400203 400008 3 -20.9215 8.69154 -21.0364 
400068 400003 3 -20.0205 8.12709 -20.6905 
400189 400008 3 -19.0402 7.8459 -20.858 
400190 400008 3 -18.782 8.55254 -21.2033 
400069 400003 3 -19.5365 8.74288 -20.7269 
400204 400008 3 -21.2422 9.39856 -20.887 
400061 400003 3 -19.8789 9.44732 -20.9562 
400060 400003 3 -20.6431 9.51888 -20.9782 
400205 400008 3 -20.8276 10.0041 -20.6186 
400199 400008 3 -19.6874 9.22853 -20.7045 
400191 400008 3 -18.9347 9.28666 -20.9759 
400020 400001 3 -9.99714 21.187 -20.6165 
400019 400001 3 -9.81002 20.5082 -20.2891 
400217 400009 3 -9.05276 20.6839 -20.5588 
400015 400001 3 -8.47622 20.9446 -20.3209 
400014 400001 3 -9.02436 20.3855 -20.1418 
400225 400009 3 -8.31484 20.5402 -20.2781 
400008 400001 3 -7.10932 21.3136 -20.5175 
400265 400011 3 -11.1086 22.1959 -20.868 
400022 400001 3 -9.70132 22.6578 -20.5968 
400021 400001 3 -9.52857 21.8644 -20.5902 
400215 400009 3 -8.72772 22.0019 -20.7798 
400214 400009 3 -8.92513 22.7453 -20.8663 
400216 400009 3 -9.23825 21.3914 -20.8927 
400016 400001 3 -8.72184 21.6747 -20.5521 
400005 400001 3 -8.05885 19.431 -20.5165 
400006 400001 3 -7.56601 20.0261 -20.7342 
400231 400009 3 -7.43224 19.5615 -20.2747 
400224 400009 3 -7.76139 21.0895 -20.4722 
400007 400001 3 -7.68816 20.7538 -20.4924 
400229 400009 3 -6.99014 20.9004 -20.5702 
400228 400009 3 -6.54216 21.5175 -20.7031 
400230 400009 3 -6.88676 20.1322 -20.4862 
400223 400009 3 -7.96016 21.871 -20.6123 
400017 400001 3 -8.12565 22.2756 -20.5507 
400227 400009 3 -6.73894 22.2731 -20.5632 
400009 400001 3 -7.33525 22.0672 -20.7213 
400222 400009 3 -7.44981 22.4966 -20.4757 
400266 400011 3 -11.525 22.8145 -21.148 
400294 400012 3 -19.0957 10.1637 11.7253 
400295 400012 3 -18.5341 9.64646 11.463 
400097 400004 3 -17.9066 10.2518 11.4938 
400303 400012 3 -17.7743 9.92734 11.5559 
400092 400004 3 -17.1657 10.5797 11.3744 
400302 400012 3 -17.5685 10.6785 11.7514 
400083 400004 3 -15.8465 10.3637 11.4892 
400309 400012 3 -16.4797 9.56273 11.8431 
400308 400012 3 -16.3786 10.2927 12.164 
400292 400012 3 -19.5024 11.4791 11.5085 
400098 400004 3 -18.6061 10.6763 11.6249 
400293 400012 3 -18.9282 10.9844 11.6347 
400100 400004 3 -19.1438 12.0754 11.6788 
400291 400012 3 -19.3942 12.255 11.2522 
400099 400004 3 -18.5564 11.4947 11.6859 
400300 400012 3 -18.0304 11.9541 11.4405 
400301 400012 3 -18.1635 11.1795 11.6077 
400094 400004 3 -17.7596 11.779 11.703 
400093 400004 3 -17.1059 11.3421 11.7007 
400305 400012 3 -17.2663 12.2318 11.6159 
400306 400012 3 -16.7653 11.7216 11.95 
400307 400012 3 -16.8395 10.9349 11.9455 
400085 400004 3 -16.447 11.6069 11.9685 
400084 400004 3 -15.9083 11.0449 11.8804 
400101 400004 3 -19.0889 12.8428 11.6769 
400095 400004 3 -17.7175 12.6212 11.5844 
400087 400004 3 -17.0041 12.9655 11.7881 
400086 400004 3 -16.5157 12.4002 12.1187 
400243 400010 3 0.541752 -13.6106 11.5536 
400241 400010 3 -0.0637417 -12.3657 11.5554 
400242 400010 3 0.652237 -12.8424 11.5451 
400240 400010 3 -0.0560009 -11.5759 11.4643 
400145 400006 3 17.5118 7.60967 -20.4652 
400035 400002 3 2.92165 5.61303 -20.6355 
400043 400002 3 2.36066 6.06803 -20.3366 
400034 400002 3 3.6545 5.87734 -20.6921 
400048 400002 3 1.10075 6.82538 -20.8126 
400049 400002 3 1.01486 6.09928 -20.5499 
400042 400002 3 2.45686 6.78901 -20.6307 
400041 400002 3 3.20395 7.08626 -20.7332 
400047 400002 3 1.80157 7.17026 -20.8803 
400033 400002 3 3.81281 6.61545 -20.8764 
400032 400002 3 4.48462 6.99124 -21.1644 
400147 400006 3 17.0177 6.30536 -20.4301 
400139 400006 3 16.2713 6.53143 -20.681 
400138 400006 3 16.1352 7.26903 -20.6422 
400146 400006 3 17.6482 6.82649 -20.3809 
400153 400006 3 17.8736 5.22217 -20.0534 
400152 400006 3 18.5312 5.70437 -20.114 
400151 400006 3 18.4126 6.47508 -20.3031 
400150 400006 3 18.963 7.07018 -20.278 
400110 400005 3 22.8674 -2.21725 11.6448 
400109 400005 3 22.5661 -1.43117 11.4692 
400031 400002 3 4.65762 7.72471 -20.8736 
400046 400002 3 1.89817 7.93938 -21.1038 
400045 400002 3 2.60663 8.25039 -20.8476 
400040 400002 3 3.30037 7.89779 -20.8868 
400137 400006 3 16.7336 7.8157 -20.6229 
400136 400006 3 16.7134 8.58002 -20.7977 
400144 400006 3 18.0369 8.13668 -20.29 
400135 400006 3 17.1578 9.14283 -20.4912 
400149 400006 3 18.7757 7.84368 -20.2668 
400161 400007 3 3.723 15.2399 -20.2085 
400162 400007 3 4.27886 14.6694 -20.2755 
400163 400007 3 5.108 14.8005 -20.1739 
400164 400007 3 5.6905 14.2495 -20.3222 
400165 400007 3 6.46648 14.3685 -20.4488 
400173 400007 3 6.68849 15.0972 -20.2293 
400170 400007 3 4.75734 16.107 -19.9383 
400171 400007 3 5.29719 15.5535 -20.1538 
400172 400007 3 6.12334 15.6932 -20.3283 
400177 400007 3 6.40589 16.4634 -20.3517 
400178 400007 3 7.20099 16.5536 -20.5273 
400179 400007 3 7.79676 15.972 -20.3932 
400175 400007 3 5.12196 16.8032 -19.9433 
400176 400007 3 5.88225 16.9816 -20.1323 
