

units				lj
dimension			3
atom_style			full

# change neighbor list parameters to avoid dangerous builds
neighbor			2.0 bin
neigh_modify			delay 3
comm_modify 			vel yes

read_data			data_lmp.out
  orthogonal box = (-22.9938 -22.9938 -31.5415) to (22.9938 22.9938 31.5415)
  2 by 3 by 4 MPI processor grid
  reading atoms ...
  400312 atoms
  scanning bonds ...
  2 = max bonds/atom
  scanning angles ...
  3 = max angles/atom
  scanning impropers ...
  1 = max impropers/atom
  reading bonds ...
  348 bonds
  reading angles ...
  492 angles
  reading impropers ...
  108 impropers
  3 = max # of 1-2 neighbors
  6 = max # of 1-3 neighbors
  15 = max # of 1-4 neighbors
  15 = max # of special neighbors

variable			rc equal 1.0

pair_style			dpd $T ${rc} 34387
pair_style			dpd 1.0 ${rc} 34387
pair_style			dpd 1.0 1 34387
pair_coeff	1	1	25	4.5	1
pair_coeff	1	2	165.362815626677	4.5	1
pair_coeff	1	3	116.862097154698	4.5	1
pair_coeff	1	4	146.155374914401	4.5	1
pair_coeff	1	5	7.1909203509054	4.5	1
pair_coeff	2	2	25	4.5	1
pair_coeff	2	3	35.9792833065638	4.5	1
pair_coeff	2	4	25.5695494065343	4.5	1
pair_coeff	2	5	129.458804641795	4.5	1
pair_coeff	3	3	25	4.5	1
pair_coeff	3	4	33.9335949525505	4.5	1
pair_coeff	3	5	76.0819248063004	4.5	1
pair_coeff	4	4	25	4.5	1
pair_coeff	4	5	126.398804395962	4.5	1
pair_coeff	5	5	25	4.5	1

# Parâmetros de lig, ângulo e impróprio tirados do Chen2018 e com o coarse-graining do Striolo
variable			k_lig_aro equal 1000
variable			k_lig_ali equal 100
variable			r0_aro equal 0.8*${rc}
variable			r0_aro equal 0.8*1
variable			r0_ali equal 0.9*${rc}
variable			r0_ali equal 0.9*1
bond_style 			harmonic
bond_coeff 			1 ${k_lig_aro} ${r0_aro} 	# B_asp-B_asp # spring const = 150 Kcal/mol/Ang² e equi.dist = 3 Angs
bond_coeff 			1 1000 ${r0_aro} 	
bond_coeff 			1 1000 0.8 	
bond_coeff 			2 ${k_lig_aro} ${r0_aro}   	# B_asp-Z_asp # spring const = 150 Kcal/mol/Ang² e equi.dist = 3 Angs
bond_coeff 			2 1000 ${r0_aro}   	
bond_coeff 			2 1000 0.8   	
bond_coeff 			3 ${k_lig_ali} ${r0_ali}	# B_asp-A_asp # spring const = 1.50 Kcal/mol/Ang² e equi.dist = 4.25 Angs
bond_coeff 			3 100 ${r0_ali}	
bond_coeff 			3 100 0.9	
bond_coeff			4 ${k_lig_ali} ${r0_ali}	# Z_asp-A_asp # spring const = 1.50 Kcal/mol/Ang² e equi.dist = 4.25 Angs
bond_coeff			4 100 ${r0_ali}	
bond_coeff			4 100 0.9	
bond_coeff			5 ${k_lig_ali} ${r0_ali}	# A_asp-A_asp # spring const = 1.50 Kcal/mol/Ang² e equi.dist = 4.25 Angs
bond_coeff			5 100 ${r0_ali}	
bond_coeff			5 100 0.9	

variable			k_ang equal 125
angle_style 			cosine/delta
angle_coeff 			1 ${k_ang} 120.0 		# K and theta0 , 300 Kcal/mol e 120 graus
angle_coeff 			1 125 120.0 		

variable			k_imp equal 5
improper_style 			cvff
improper_coeff	 		* ${k_imp} -1 2		# K d n, K = 12.5 Kcal/mol
improper_coeff	 		* 5 -1 2		

variable                        dt equal 0.002
mass				* 1.0
velocity			all create $T 12345 dist gaussian
velocity			all create 1.0 12345 dist gaussian
fix				1 all nve

variable                        total_timesteps equal 3000000
variable			equi_timesteps	equal round(${total_timesteps}*50/100) #10% of total time
variable			equi_timesteps	equal round(3000000*50/100) 
variable			thermo_equi	equal round(${equi_timesteps}/1000)
variable			thermo_equi	equal round(1500000/1000)
variable			thermo_prod	equal round(${total_timesteps}/1000)
variable			thermo_prod	equal round(3000000/1000)
variable                        dump equal round(${total_timesteps}/1)
variable                        dump equal round(3000000/1)

# Equilibration
timestep                        ${dt}
timestep                        0.002
thermo                          ${thermo_equi}
thermo                          1500
thermo_style                    custom step temp press pe ke etotal epair emol
run                             ${equi_timesteps}
run                             1500000
Neighbor list info ...
  update every 1 steps, delay 3 steps, check yes
  max neighbors/atom: 2000, page size: 100000
  master list distance cutoff = 3
  ghost atom cutoff = 3
  binsize = 1.5, bins = 31 31 43
  1 neighbor lists, perpetual/occasional/extra = 1 0 0
  (1) pair dpd, perpetual
      attributes: half, newton on
      pair build: half/bin/newton
      stencil: half/bin/3d/newton
      bin: standard
Per MPI rank memory allocation (min/avg/max) = 36.17 | 36.96 | 37.47 Mbytes
Step Temp Press PotEng KinEng TotEng E_pair E_mol 
       0            1    95.635306    18.608766    1.4999963    20.108763    18.460748   0.14801851 
    1500    1.1864569    30.055454    5.4831299     1.779681    7.2628109    5.4739876 0.0091423302 
    3000    1.0564311    28.044607    5.1923743    1.5846427     6.777017    5.1832193 0.0091549848 
    4500    1.0439736     27.21671    5.0698274    1.5659565    6.6357839    5.0607316 0.0090957946 
    6000    1.0374505    26.759617    4.9924018    1.5561719    6.5485737      4.98386 0.0085418156 
    7500     1.027311    26.334582    4.9462484    1.5409627     6.487211    4.9367796  0.009468717 
    9000    1.0289224    26.098148    4.9053274    1.5433797    6.4487071    4.8961647 0.0091627689 
   10500    1.0233474    25.890329    4.8781047    1.5350173    6.4131219    4.8692214 0.0088832354 
   12000    1.0272801    25.853682     4.846765    1.5409163    6.3876813    4.8378718 0.0088931882 
   13500    1.0204728     25.52419    4.8321213    1.5307054    6.3628268    4.8228506 0.0092707396 
   15000    1.0238586    25.420088     4.810924    1.5357841    6.3467081    4.8023898 0.0085341679 
   16500     1.020684    25.398266    4.7956205    1.5310222    6.3266427    4.7863925 0.0092279886 
   18000    1.0186604    25.250314    4.7836307    1.5279867    6.3116174    4.7746889 0.0089418185 
   19500     1.020553    25.115197    4.7700051    1.5308257    6.3008309    4.7615947 0.0084104092 
   21000    1.0181655    25.143349     4.762712    1.5272444    6.2899563    4.7538698 0.0088421674 
   22500    1.0179524    25.062671    4.7513447    1.5269247    6.2782694    4.7429263 0.0084183608 
   24000    1.0167696    25.024712    4.7418643    1.5251507    6.2670149    4.7330623 0.0088019471 
   25500    1.0186566    24.975146    4.7349201    1.5279811    6.2629012    4.7260025 0.0089175337 
   27000     1.014015    24.900277    4.7289818    1.5210187    6.2500006    4.7206743 0.0083075874 
   28500    1.0149571    24.804302    4.7199983    1.5224319    6.2424302    4.7112322 0.0087661015 
   30000    1.0123873     24.82604    4.7200272    1.5185772    6.2386044    4.7111993 0.0088278271 
   31500    1.0125533    24.855972    4.7155542    1.5188261    6.2343803    4.7060274 0.0095267237 
   33000    1.0132739    24.786973      4.71356     1.519907     6.233467    4.7042088 0.0093511488 
   34500    1.0095804    24.701072    4.7067694    1.5143669    6.2211362    4.6961118  0.010657613 
   36000    1.0122268    24.684885     4.702117    1.5183365    6.2204534    4.6938441 0.0082728377 
   37500    1.0121325    24.622922    4.6989047    1.5181949    6.2170997    4.6898441 0.0090606247 
   39000     1.014925    24.675828    4.6941937    1.5223838    6.2165774    4.6854634 0.0087302862 
   40500    1.0128728    24.609306    4.6916335    1.5193054     6.210939    4.6820799 0.0095536024 
   42000    1.0131965    24.617393    4.6881685    1.5197909    6.2079594    4.6790401 0.0091283371 
   43500     1.011695    24.633723    4.6867194    1.5175388    6.2042582    4.6770593 0.0096600847 
   45000    1.0107154    24.621032    4.6835321    1.5160693    6.1996015    4.6733415  0.010190625 
   46500      1.01146    24.579267    4.6831124    1.5171862    6.2002986    4.6739714 0.0091409533 
   48000    1.0104144    24.585735    4.6798843    1.5156179    6.1955021    4.6705894 0.0092949105 
   49500    1.0129165    24.591884    4.6799628    1.5193709    6.1993338    4.6704579 0.0095049324 
   51000    1.0098129    24.596172    4.6744206    1.5147155    6.1891361    4.6647752 0.0096453647 
   52500    1.0121466    24.509114    4.6739655    1.5182162    6.1921817    4.6647904  0.009175099 
   54000      1.01128    24.465363    4.6701177    1.5169163    6.1870339    4.6610926 0.0090250793 
   55500    1.0097814    24.461744    4.6672062    1.5146683    6.1818746    4.6584857 0.0087205481 
   57000     1.012038    24.454277    4.6645893    1.5180533    6.1826426    4.6554704 0.0091188772 
   58500    1.0102305     24.38097    4.6630933    1.5153419    6.1784352    4.6540543 0.0090390049 
   60000    1.0121597    24.469483    4.6622513    1.5182357     6.180487    4.6526073 0.0096440079 
   61500     1.012541    24.378832    4.6584028    1.5188077    6.1772105    4.6491111 0.0092916936 
   63000    1.0101526    24.444951    4.6556868     1.515225    6.1709119    4.6463475 0.0093393417 
   64500    1.0093766    24.390753    4.6562308    1.5140611    6.1702918    4.6471096 0.0091211276 
   66000    1.0100595    24.365129    4.6559976    1.5150854    6.1710831     4.646792 0.0092056743 
   67500    1.0111874    24.368135    4.6531669    1.5167774    6.1699443      4.64383 0.0093368507 
   69000    1.0093776    24.356775    4.6524155    1.5140626    6.1664781    4.6430792 0.0093362601 
   70500    1.0077972    24.317077    4.6515804     1.511692    6.1632724     4.642557 0.0090234179 
   72000     1.007861    24.462843    4.6509873    1.5117877     6.162775    4.6412308 0.0097564811 
   73500    1.0091811     24.34304    4.6491911    1.5137679     6.162959    4.6402321 0.0089590118 
   75000    1.0074976    24.273656    4.6473177    1.5112426    6.1585604    4.6378743 0.0094434738 
   76500    1.0082303    24.293175    4.6469781    1.5123417    6.1593198    4.6377731 0.0092049921 
   78000    1.0072147    24.345646    4.6464049    1.5108182    6.1572231    4.6368957 0.0095091483 
   79500    1.0072302    24.304267    4.6471683    1.5108415    6.1580098     4.637375 0.0097932782 
   81000    1.0077106    24.242775     4.645307    1.5115621    6.1568691    4.6359356 0.0093714724 
   82500    1.0070012    24.244551    4.6399665     1.510498    6.1504645    4.6313429 0.0086235962 
   84000    1.0060695    24.179414    4.6426653    1.5091005    6.1517658    4.6331487 0.0095166087 
   85500    1.0098064    24.266911    4.6418565    1.5147058    6.1565623    4.6324942 0.0093623096 
   87000    1.0084274    24.176221    4.6393938    1.5126373    6.1520311    4.6301043 0.0092894943 
   88500    1.0089666    24.230887    4.6410565    1.5134461    6.1545026    4.6316249 0.0094316346 
   90000    1.0088664     24.22199    4.6342118    1.5132959    6.1475077     4.624716 0.0094957948 
   91500    1.0084782    24.275719     4.635761    1.5127135    6.1484745       4.6263 0.0094609351 
   93000    1.0066086    24.229104    4.6386719    1.5099091     6.148581    4.6288562 0.0098156801 
   94500    1.0102717    24.196874    4.6346803    1.5154037     6.150084    4.6250881 0.0095921935 
   96000     1.005736     24.21016    4.6336671    1.5086002    6.1422673    4.6242806 0.0093865836 
   97500    1.0080237    24.238464     4.631215    1.5120318    6.1432468    4.6215863 0.0096286611 
   99000    1.0067224    24.142482     4.631213    1.5100798    6.1412927    4.6214306 0.0097823958 
  100500    1.0094702    24.229635    4.6313727    1.5142015    6.1455742    4.6214919 0.0098807693 
  102000    1.0095075    24.220344    4.6287518    1.5142575    6.1430093    4.6193995 0.0093522392 
  103500    1.0073419    24.148355    4.6298764    1.5110091    6.1408855    4.6210933 0.0087831384 
  105000    1.0082178    24.082744    4.6260159    1.5123229    6.1383388    4.6167088 0.0093070829 
  106500    1.0078839    24.158794     4.624424    1.5118221    6.1362461    4.6148866 0.0095374414 
  108000    1.0086851    24.116779    4.6281595    1.5130239    6.1411834    4.6188444 0.0093150924 
  109500    1.0075587    24.169438    4.6250924    1.5113342    6.1364266     4.615638 0.0094544263 
  111000    1.0079861    24.159894     4.624873    1.5119754    6.1368484    4.6153219 0.0095511409 
  112500    1.0081836    24.120873    4.6231397    1.5122717    6.1354114    4.6140271 0.0091126328 
  114000    1.0086403    24.131624    4.6208971    1.5129567    6.1338538    4.6123831 0.0085140434 
  115500    1.0074631    24.177789    4.6209416    1.5111909    6.1321324    4.6120301 0.0089114877 
  117000    1.0068121     24.06488    4.6191059    1.5102144    6.1293202    4.6100836  0.009022218 
  118500    1.0072808    24.155969    4.6203167    1.5109174    6.1312341    4.6110421  0.009274622 
  120000    1.0084141     24.08381    4.6220287    1.5126174    6.1346461    4.6127445 0.0092841948 
  121500    1.0053522    24.164571    4.6196975    1.5080246     6.127722    4.6102624 0.0094350623 
  123000     1.008426    24.102466    4.6200656    1.5126352    6.1327008    4.6109818 0.0090838521 
  124500    1.0062077    24.095214    4.6175212    1.5093078     6.126829    4.6082844 0.0092368063 
  126000    1.0051792    24.086347    4.6189674    1.5077651    6.1267324    4.6096478 0.0093196253 
  127500    1.0061864     24.09372    4.6187158    1.5092759    6.1279917    4.6100811 0.0086347023 
  129000    1.0048872    24.079091    4.6205882    1.5073271    6.1279152    4.6118819 0.0087062359 
  130500    1.0043067    24.110891    4.6198184    1.5064563    6.1262748    4.6101495 0.0096689086 
  132000    1.0061019    24.079426    4.6180186    1.5091491    6.1271677    4.6092873 0.0087312957 
  133500    1.0053243    24.170236    4.6207308    1.5079828    6.1287135    4.6117289  0.009001895 
  135000    1.0044347    24.023744    4.6187748    1.5066482     6.125423    4.6090638 0.0097109828 
  136500    1.0050068    24.093048    4.6155337    1.5075064    6.1230401    4.6067004 0.0088332869 
  138000    1.0042593    24.092925    4.6188946    1.5063852    6.1252798    4.6098996 0.0089950218 
  139500    1.0071149    24.136631    4.6161005    1.5106687    6.1267691    4.6069414 0.0091590197 
  141000     1.005784    24.062943    4.6186125    1.5086722    6.1272847    4.6089645  0.009647942 
  142500    1.0073001    24.074305    4.6180011    1.5109464    6.1289475    4.6082606 0.0097404843 
  144000    1.0029415     24.14996    4.6163446    1.5044085     6.120753    4.6069245 0.0094200978 
  145500    1.0031681    24.052664    4.6167899    1.5047484    6.1215383    4.6071333 0.0096565895 
  147000    1.0030658    24.085749    4.6169953    1.5045949    6.1215902    4.6076713 0.0093240425 
  148500    1.0047808    24.036384    4.6129115    1.5071675     6.120079    4.6042701 0.0086414425 
  150000    1.0069642    24.075462     4.615247    1.5104425    6.1256895    4.6054226 0.0098243971 
  151500    1.0045799    24.140316    4.6135494    1.5068661    6.1204156    4.6041469 0.0094025195 
  153000    1.0073166    23.994391    4.6137006    1.5109711    6.1246717    4.6051145  0.008586131 
  154500    1.0064295    24.058082     4.613273    1.5096404    6.1229134    4.6039299 0.0093430847 
  156000    1.0045525    24.075905    4.6128527    1.5068249    6.1196776     4.603154 0.0096986239 
  157500    1.0046785    24.013443     4.613817     1.507014    6.1208311    4.6042077 0.0096093188 
  159000    1.0052036    24.048238    4.6134092    1.5078016    6.1212108    4.6036279 0.0097813672 
  160500    1.0049396    24.025765    4.6111227    1.5074057    6.1185284    4.6019354 0.0091872672 
  162000    1.0057788    23.988655    4.6114071    1.5086644    6.1200715    4.6017636 0.0096434963 
  163500     1.007269    24.081076    4.6101919    1.5108997    6.1210916    4.6005652 0.0096267521 
  165000    1.0063722    24.012198    4.6084232    1.5095546    6.1179777    4.5990816  0.009341598 
  166500    1.0073315    23.996928     4.607148    1.5109935    6.1181415    4.5979964 0.0091516396 
  168000    1.0060166    23.966504    4.6085453    1.5090212    6.1175665    4.5993496 0.0091957835 
  169500    1.0075332    23.969504    4.6062657    1.5112961    6.1175618    4.5967285 0.0095372035 
  171000    1.0071374     24.01349    4.6065724    1.5107023    6.1172747    4.5970186 0.0095537515 
  172500    1.0065552    23.987166    4.6041735    1.5098291    6.1140026    4.5946249 0.0095486182 
  174000    1.0048097    23.966606    4.6042592    1.5072108      6.11147    4.5948825 0.0093767451 
  175500    1.0073349    24.038023    4.6012409    1.5109986    6.1122395    4.5919894 0.0092514241 
  177000    1.0056684    24.043284    4.6024862    1.5084989    6.1109851    4.5927822 0.0097039804 
  178500    1.0067608    23.960596    4.6000455    1.5101374     6.110183    4.5910189 0.0090266565 
  180000    1.0060447    24.009169     4.601764    1.5090633    6.1108273    4.5927519 0.0090121498 
  181500    1.0053257     23.98851    4.6009911    1.5079848    6.1089759    4.5918114 0.0091796823 
  183000    1.0055582    23.983145    4.6026808    1.5083336    6.1110144    4.5935968 0.0090840418 
  184500    1.0050673    23.948408    4.6018297    1.5075971    6.1094268    4.5921952 0.0096344278 
  186000    1.0056165    24.036509    4.6013578     1.508421    6.1097788    4.5924034 0.0089544122 
  187500    1.0041778    23.991774    4.6052809    1.5062629    6.1115438    4.5960767 0.0092041793 
  189000    1.0045374    23.976481    4.6034358    1.5068023    6.1102381    4.5942121 0.0092236843 
  190500    1.0015027    23.955884     4.603222    1.5022504    6.1054724    4.5937614 0.0094605743 
  192000    1.0018342    24.048076    4.6039982    1.5027476    6.1067457    4.5945896 0.0094085479 
  193500    1.0005743    23.932048    4.6049143    1.5008576     6.105772    4.5957621 0.0091521706 
  195000    1.0008746    24.019507     4.603104    1.5013081    6.1044121    4.5936073 0.0094966824 
  196500    1.0037422     24.00093    4.6047791    1.5056095    6.1103887    4.5958425 0.0089366142 
  198000    1.0007592    24.040951    4.6029195    1.5011351    6.1040546    4.5938016 0.0091179102 
  199500    1.0025108    24.002069    4.6030736    1.5037625    6.1068361    4.5941214 0.0089522068 
  201000    1.0013021    24.080481    4.6013333    1.5019494    6.1032826    4.5926056 0.0087276282 
  202500    1.0000014    23.915286    4.6022835    1.4999984    6.1022819     4.592816 0.0094674867 
  204000    1.0025571    24.010068    4.6046265    1.5038318    6.1084583    4.5952217 0.0094047519 
  205500    1.0016379    24.096827    4.6031223    1.5024531    6.1055755    4.5938938 0.0092284851 
  207000    1.0033406    24.022528    4.6022781    1.5050071    6.1072852    4.5929329 0.0093451978 
  208500    1.0035606    23.962961    4.6026178    1.5053371    6.1079548    4.5934182 0.0091995562 
  210000     1.002248    23.967136    4.6011569    1.5033683    6.1045252    4.5918739 0.0092830048 
  211500    1.0008199    23.926606    4.6033038    1.5012261    6.1045298     4.593831  0.009472738 
  213000    1.0017862    23.974625    4.6034177    1.5026756    6.1060933    4.5938198 0.0095979931 
  214500    1.0014591    23.992037    4.6012948     1.502185    6.1034797    4.5916688 0.0096259485 
  216000    1.0026115    23.955368    4.5991866    1.5039135    6.1031001     4.590129 0.0090576165 
  217500    1.0016529    23.910839    4.6013333    1.5024755    6.1038089    4.5923973 0.0089360056 
  219000    1.0046013    23.873865    4.6014657    1.5068982    6.1083639    4.5921018 0.0093639338 
  220500    1.0040024    24.005001    4.5993899    1.5059998    6.1053897    4.5904192 0.0089706973 
  222000    1.0046416    23.978848    4.6009151    1.5069587    6.1078738    4.5916816 0.0092335179 
  223500    1.0037695    24.021839    4.5989516    1.5056505     6.104602    4.5893995 0.0095520233 
  225000    1.0023229    23.910744    4.5987286    1.5034806    6.1022092    4.5893232 0.0094054824 
  226500    1.0030184    23.968528    4.6003564    1.5045238    6.1048802    4.5906435 0.0097128603 
  228000    1.0052347    23.904726    4.5990083    1.5078483    6.1068566    4.5896252 0.0093831028 
  229500     1.001627    23.986309    4.5997295    1.5024368    6.1021663    4.5902505 0.0094790592 
  231000    1.0008337    23.944631    4.6019626    1.5012467    6.1032094     4.592318 0.0096445894 
  232500     1.003952    23.981484    4.6003789    1.5059243    6.1063032    4.5914086 0.0089702709 
  234000    1.0041575    23.942768    4.6025849    1.5062326    6.1088175    4.5929002 0.0096847078 
  235500    1.0029283    23.971106    4.6036071    1.5043888    6.1079958    4.5945958 0.0090112408 
  237000    1.0013389    23.996228    4.6016142    1.5020046    6.1036189    4.5923712 0.0092430706 
  238500   0.99961491    23.972205     4.601366    1.4994186    6.1007846    4.5920997 0.0092662619 
  240000    1.0009335    24.021396    4.6000702    1.5013964    6.1014667    4.5905294 0.0095407923 
  241500   0.99976653     23.97411    4.6003876     1.499646    6.1000337    4.5913426 0.0090450272 
  243000     1.001836    23.982454    4.6019364    1.5027502    6.1046867    4.5926326 0.0093038975 
  244500    1.0035579    23.931748    4.6034156    1.5053331    6.1087488    4.5943296 0.0090860118 
  246000     1.001462     23.97698    4.6015048    1.5021892     6.103694    4.5922057 0.0092991209 
  247500   0.99924968    24.027934    4.5999971    1.4988708    6.0988679    4.5904852 0.0095119173 
  249000    1.0015973    24.016094    4.6014424    1.5023922    6.1038346    4.5919883 0.0094541723 
  250500    1.0023102    23.951386    4.6027526    1.5034616    6.1062142     4.593284 0.0094686506 
  252000    1.0015698    23.965859    4.5995142    1.5023509    6.1018651    4.5900897 0.0094244796 
  253500    1.0015373    23.942152    4.6010528    1.5023022     6.103355    4.5917049 0.0093478361 
  255000   0.99905677     23.91586    4.5995278    1.4985814    6.0981092    4.5898944 0.0096334094 
  256500    1.0010683    23.939707    4.5991641    1.5015988    6.1007629    4.5902489 0.0089152243 
  258000    1.0007648    23.993126    4.5985517    1.5011435    6.0996952    4.5888841 0.0096676159 
  259500    1.0021392    23.975468    4.6011863    1.5032051    6.1043914    4.5920952 0.0090911624 
  261000    1.0027847    23.948815    4.6016981    1.5041733    6.1058714    4.5921082 0.0095899315 
  262500    1.0035457    24.018547    4.5991749    1.5053148    6.1044898    4.5902109 0.0089640369 
  264000    1.0004959    24.078938    4.5981477      1.50074    6.0988877     4.588775 0.0093727074 
  265500    1.0013077    23.986134    4.5984702    1.5019578     6.100428    4.5894913 0.0089789189 
  267000    1.0002487    24.007558    4.5992907    1.5003694      6.09966    4.5898644  0.009426247 
  268500    1.0014496    24.078749    4.6008908    1.5021706    6.1030614    4.5913162 0.0095745324 
  270000    1.0014044    23.906746    4.6012613    1.5021028    6.1033641    4.5916604 0.0096008951 
  271500   0.99949667    23.864671    4.6002723    1.4992413    6.0995135    4.5909186 0.0093536451 
  273000    1.0021726    24.034547    4.6011203    1.5032552    6.1043755     4.591497 0.0096233012 
  274500   0.99987919    23.958081    4.6003585     1.499815    6.1001736    4.5911058 0.0092527558 
  276000    1.0014871    23.953214    4.5989022    1.5022269    6.1011291    4.5898264 0.0090758042 
  277500    1.0013927    23.987544    4.6000297    1.5020852    6.1021149    4.5909365 0.0090932027 
  279000    1.0017519    23.972014    4.6014457    1.5026241    6.1040699     4.592474 0.0089717197 
  280500   0.99991837    23.981914     4.599173    1.4998738    6.0990468    4.5900681 0.0091048855 
  282000   0.99983799    24.005918    4.6001759    1.4997532    6.0999291    4.5912575 0.0089184111 
  283500   0.99750881     24.00384    4.6005006    1.4962595    6.0967601     4.590977 0.0095236748 
  285000    1.0028052    24.012088    4.6002966    1.5042041    6.1045007    4.5910965 0.0092001275 
  286500    1.0014984    23.982284    4.5982735    1.5022438    6.1005173     4.589258 0.0090154822 
  288000   0.99977215    23.984054    4.5989035    1.4996545     6.098558    4.5898251  0.009078455 
  289500    1.0016071    24.013935    4.6010539    1.5024069    6.1034608    4.5916395 0.0094143991 
  291000    1.0004396    23.991472    4.5991056    1.5006557    6.0997613    4.5899878 0.0091178143 
  292500    1.0017529    24.021448    4.5970971    1.5026256    6.0997227    4.5877927  0.009304394 
  294000    1.0009232    23.925449    4.6013468     1.501381    6.1027278    4.5915705 0.0097763289 
  295500    1.0032918    23.994998    4.5990315    1.5049339    6.1039654    4.5897889 0.0092426835 
  297000    1.0022086    24.023664    4.5969829    1.5033092    6.1002921     4.588291 0.0086918996 
  298500     1.000857    23.999883    4.6008702    1.5012818     6.102152    4.5914217 0.0094484911 
  300000    1.0049723    24.024886    4.6008334    1.5074547    6.1082881    4.5914943 0.0093391397 
  301500   0.99993798    23.955248    4.6010659    1.4999032    6.1009691    4.5917433 0.0093226238 
  303000    1.0006281    23.981862    4.5989685    1.5009384    6.0999069     4.590142 0.0088264995 
  304500    1.0003698    23.956122    4.5989437    1.5005509    6.0994947    4.5899612 0.0089825913 
  306000     1.001578    23.916922    4.5983981    1.5023633    6.1007613    4.5895215 0.0088765552 
  307500    0.9992542    23.974444    4.5975646    1.4988776    6.0964421    4.5885302 0.0090343355 
  309000    1.0015699    23.980654    4.6017623    1.5023511    6.1041134    4.5918578 0.0099045663 
  310500    1.0008073    24.000185    4.6000633    1.5012071    6.1012704    4.5901544 0.0099088653 
  312000     1.003139    23.960555    4.5979315    1.5047047    6.1026362    4.5888539 0.0090775887 
  313500   0.99964075    24.002017    4.5978157    1.4994574    6.0972731    4.5888238 0.0089919168 
  315000    1.0007228    23.911704    4.5969909    1.5010805    6.0980714    4.5879559 0.0090350501 
  316500    1.0004676    23.990396    4.5975525    1.5006976    6.0982501     4.588313 0.0092395734 
  318000   0.99827485    23.986639    4.6004847    1.4974085    6.0978933    4.5908553 0.0096294627 
  319500     1.002355    24.006984    4.6011132    1.5035287    6.1046419    4.5915341   0.00957902 
  321000    1.0026153    23.911932    4.5985029    1.5039191    6.1024221    4.5899262 0.0085766908 
  322500    1.0020945    23.936658     4.598674     1.503138     6.101812    4.5891349 0.0095391159 
  324000   0.99992254    23.997105    4.6008387    1.4998801    6.1007188    4.5919643 0.0088743455 
  325500    1.0016419    23.980778    4.5989211    1.5024591    6.1013803    4.5898973 0.0090238026 
  327000   0.99854619    23.906457    4.6005796    1.4978155    6.0983951    4.5917701 0.0088094256 
  328500    1.0017938    23.947174    4.5974603     1.502687    6.1001472    4.5884797 0.0089805556 
  330000    1.0023782    24.090651    4.5986609    1.5035636    6.1022245    4.5894507 0.0092102414 
  331500   0.99974079    23.940575    4.5982483    1.4996074    6.0978558    4.5887705 0.0094778497 
  333000    1.0005777    23.917402    4.6007991    1.5008628    6.1016619    4.5908439 0.0099551838 
  334500    1.0006466    23.983852    4.5987558    1.5009662    6.0997221    4.5899195 0.0088363214 
  336000   0.99850235    23.901561    4.5985133    1.4977498    6.0962631    4.5892357 0.0092776539 
  337500    1.0013735    24.045017    4.5986207    1.5020566    6.1006773    4.5888953 0.0097254114 
  339000    1.0000498    23.986011    4.5981113    1.5000709    6.0981822     4.588388 0.0097233314 
  340500   0.99945491    23.950955     4.602102    1.4991786    6.1012806    4.5926833 0.0094186459 
  342000    1.0027359    23.978816    4.6014328    1.5041001    6.1055329     4.592168 0.0092648086 
  343500    1.0003764    24.021987     4.598205    1.5005609    6.0987659    4.5885133 0.0096917424 
  345000    1.0003369    23.934494    4.5990166    1.5005017    6.0995183    4.5897474 0.0092691886 
  346500    1.0016203    23.955291    4.5984963    1.5024267     6.100923    4.5896173 0.0088789185 
  348000    1.0024585    23.996633     4.599842     1.503684     6.103526     4.590718 0.0091239289 
  349500   0.99954565    23.971685    4.6002378    1.4993147    6.0995525    4.5907735 0.0094642807 
  351000     1.002863    24.001866    4.5985234    1.5042907    6.1028141    4.5894513  0.009072146 
  352500   0.99937258    23.895578    4.6000312    1.4990551    6.0990863    4.5904233 0.0096078999 
  354000    1.0018736    23.953423    4.6000276    1.5028067    6.1028343    4.5911235 0.0089040449 
  355500    1.0024717    24.001418    4.5988131    1.5037038     6.102517    4.5896501 0.0091630564 
  357000    1.0014109    23.953118    4.5980602    1.5021126    6.1001729    4.5890244 0.0090358129 
  358500    1.0016623    23.950871    4.6011049    1.5024897    6.1035946     4.591466 0.0096388693 
  360000    1.0034568    24.035202     4.600529    1.5051815    6.1057104    4.5911415 0.0093874601 
  361500   0.99958702    24.010035    4.6007782    1.4993768     6.100155    4.5912003 0.0095779536 
  363000    1.0002934    24.025709    4.5995641    1.5004363    6.1000003    4.5902444 0.0093196198 
  364500   0.99673696    23.961986    4.5994759    1.4951017    6.0945776    4.5896012 0.0098747875 
  366000     1.000999    23.948904    4.5967948    1.5014948    6.0982895    4.5873284  0.009466397 
  367500   0.99892872    24.000891     4.600501    1.4983893    6.0988903    4.5912246 0.0092764267 
  369000    1.0014087    24.020702    4.6007671    1.5021093    6.1028764    4.5909823 0.0097848099 
  370500    1.0002301    23.979233    4.5995037    1.5003414     6.099845    4.5901317 0.0093719111 
  372000     1.000515    23.974461    4.5971407    1.5007687    6.0979095    4.5877263 0.0094144342 
  373500   0.99976066    23.933591    4.6000076    1.4996372    6.0996448     4.590848 0.0091595634 
  375000    1.0009063    23.965138    4.6002026    1.5013557    6.1015583    4.5912857 0.0089168784 
  376500    1.0011239    24.030578    4.6003944    1.5016822    6.1020766    4.5905473 0.0098470879 
  378000    1.0025564    23.936754    4.6006758    1.5038308    6.1045067    4.5912561 0.0094197117 
  379500    1.0005574    24.011312    4.5995157    1.5008323    6.1003481    4.5900088 0.0095068997 
  381000    1.0022088    23.981797    4.6013464    1.5033095    6.1046558    4.5917496 0.0095967663 
  382500    1.0004363    23.897263    4.5998216    1.5006507    6.1004722    4.5904228 0.0093987472 
  384000    1.0016173    24.011033    4.5997806    1.5024223    6.1022028    4.5903844 0.0093961494 
  385500    1.0010189    23.886132    4.6006971    1.5015245    6.1022216      4.59094 0.0097571356 
  387000    1.0002036    23.993041    4.6000543    1.5003016    6.1003559    4.5908699 0.0091844381 
  388500     1.000787    23.929594    4.5999007    1.5011767    6.1010774    4.5910274 0.0088733726 
  390000    1.0028189    23.939097    4.5979612    1.5042245    6.1021857    4.5885554 0.0094057902 
  391500   0.99951602    23.963035    4.6008116    1.4992703    6.1000819    4.5921555 0.0086561037 
  393000    1.0035142    23.906095     4.596686    1.5052676    6.1019537    4.5878435 0.0088425004 
  394500      1.00258    24.038586    4.6015164    1.5038662    6.1053826    4.5924117 0.0091046581 
  396000    1.0023457    23.949964    4.5978819    1.5035148    6.1013967    4.5887884  0.009093527 
  397500    1.0016343    23.952482    4.5991132    1.5024478     6.101561    4.5895972 0.0095159751 
  399000    1.0014426    23.950303    4.5983919    1.5021601    6.1005521    4.5896529 0.0087390769 
  400500    1.0012425    23.956673    4.5979731      1.50186    6.0998331    4.5892389 0.0087341166 
  402000    1.0027524    24.006886    4.5990739    1.5041248    6.1031987    4.5897579 0.0093160543 
  403500    1.0010666    24.041035    4.6003801    1.5015962    6.1019763    4.5910967 0.0092834629 
  405000    1.0022312    23.889915    4.5993246    1.5033431    6.1026678    4.5901256 0.0091990176 
  406500   0.99990447    23.956214     4.597756     1.499853     6.097609    4.5887048 0.0090512608 
  408000      1.00296     24.02147    4.6004476    1.5044363    6.1048839    4.5915455 0.0089020194 
  409500    1.0024124    23.943652    4.5981797    1.5036149    6.1017946     4.589049 0.0091307419 
  411000   0.99928572    23.995128    4.5979653    1.4989248    6.0968901    4.5888745 0.0090907933 
  412500    1.0022196    23.916181    4.6004021    1.5033256    6.1037277    4.5910059 0.0093961707 
  414000    1.0010739    23.953543    4.5980803    1.5016072    6.0996874     4.588266  0.009814299 
  415500    1.0015042    23.937612    4.5986155    1.5022526    6.1008681    4.5889372 0.0096783565 
  417000   0.99886667    24.008006     4.598353    1.4982963    6.0966492    4.5888774 0.0094755217 
  418500    1.0025272    23.999745    4.5977484    1.5037871    6.1015355    4.5886576 0.0090908048 
  420000   0.99884396    23.943551    4.6005449    1.4982622    6.0988071    4.5911364 0.0094085515 
  421500    1.0026832    24.004161    4.6000289    1.5040211      6.10405    4.5910353 0.0089935844 
  423000    1.0018055     23.99435    4.5978858    1.5027045    6.1005904    4.5886257 0.0092601781 
  424500    1.0007282    23.989495    4.5985182    1.5010886    6.0996068    4.5890396    0.0094786 
  426000    1.0029945    23.936957    4.5984025    1.5044881    6.1028906    4.5889598 0.0094427145 
  427500    1.0002485    23.930639    4.5971005    1.5003691    6.0974695    4.5874487 0.0096517886 
  429000    1.0020511        23.99    4.5983449    1.5030728    6.1014177    4.5893558 0.0089890431 
  430500    1.0018004    24.025871    4.5972991    1.5026968    6.0999959    4.5883825 0.0089165984 
  432000   0.99996804    23.933394    4.5998735    1.4999483    6.0998218    4.5906861 0.0091873529 
  433500    1.0007588     23.94861    4.6006255    1.5011344    6.1017599    4.5912506 0.0093749236 
  435000    1.0003137     23.96369    4.5985162    1.5004668     6.098983    4.5895035 0.0090126788 
  436500   0.99835314    23.969895    4.5970263     1.497526    6.0945522     4.587841 0.0091853078 
  438000    1.0009791    23.959915    4.5986495    1.5014649    6.1001144    4.5896624  0.008987153 
  439500     1.002368    23.970565    4.5977105    1.5035482    6.1012587    4.5890155 0.0086949791 
  441000    1.0013238    23.912086    4.6002364    1.5019819    6.1022183    4.5914515  0.008784942 
  442500    1.0011041     23.99604    4.5990617    1.5016524    6.1007141    4.5896996 0.0093621307 
  444000     1.000743    24.000396    4.6000853    1.5011108     6.101196    4.5906499 0.0094353293 
  445500    0.9995328    23.944634    4.6008073    1.4992955    6.1001028    4.5911174 0.0096899125 
  447000    1.0008718    23.896455    4.5993556     1.501304    6.1006596    4.5902935 0.0090621052 
  448500    0.9996444    23.936121    4.5991669    1.4994628    6.0986297    4.5898419 0.0093249067 
  450000   0.99945859    23.885677    4.5992393    1.4991841    6.0984234    4.5895132 0.0097260611 
  451500    1.0020026     23.98826    4.5970768    1.5030001     6.100077    4.5879009 0.0091758873 
  453000     1.001018    24.020003    4.5995761    1.5015232    6.1010993    4.5902008 0.0093753255 
  454500    1.0001802    24.032595    4.5975917    1.5002665    6.0978582    4.5883886 0.0092031007 
  456000    0.9998785    23.931306    4.6003333     1.499814    6.1001474    4.5908107 0.0095226244 
  457500    1.0015064    23.978958      4.59918    1.5022559    6.1014359    4.5900559 0.0091241671 
  459000    1.0017552    24.048287    4.5991984     1.502629    6.1018273    4.5902873 0.0089110297 
  460500     1.001007    23.967422    4.5972636    1.5015067    6.0987703    4.5879165 0.0093471134 
  462000    1.0009032    23.985256    4.5991893    1.5013511    6.1005403    4.5895025 0.0096867595 
  463500    1.0027434    23.908503    4.5983025    1.5041113    6.1024138    4.5889702 0.0093323302 
  465000    1.0005732    23.972683    4.5989277     1.500856    6.0997837    4.5897552 0.0091725297 
  466500    1.0007309    23.916052    4.5988517    1.5010927    6.0999444    4.5894186 0.0094331681 
  468000     1.001809    23.951531      4.59715    1.5027098    6.0998598    4.5880541 0.0090959061 
  469500    0.9994538    23.991977    4.5997991     1.499177     6.098976    4.5904957 0.0093033879 
  471000    1.0011306    23.974289    4.5991538    1.5016921    6.1008459    4.5898689 0.0092848422 
  472500    1.0024982    24.000522    4.6001292    1.5037436    6.1038728    4.5909605 0.0091687214 
  474000    1.0032344    24.031429    4.5993048    1.5048479    6.1041527    4.5902779 0.0090269821 
  475500    1.0003168    23.963633    4.5969106    1.5004715    6.0973821    4.5877883 0.0091222195 
  477000    1.0009385    23.912395    4.5967333     1.501404    6.0981373    4.5880007 0.0087325346 
  478500    1.0015206    23.976572    4.6002797    1.5022772    6.1025569    4.5908305 0.0094492013 
  480000   0.99929841    23.919531    4.5985242    1.4989439    6.0974681    4.5894285 0.0090957293 
  481500   0.99923135    23.985611    4.5969625    1.4988433    6.0958058    4.5877901 0.0091724093 
  483000    1.0029696    23.971574    4.5985281    1.5044506    6.1029787    4.5891789 0.0093492289 
  484500   0.99908637    23.881396    4.5996765    1.4986258    6.0983023    4.5906565 0.0090200587 
  486000    0.9995214    23.928483    4.5997988    1.4992784    6.0990772    4.5911044 0.0086943512 
  487500    1.0000614    23.928145    4.5998691    1.5000884    6.0999575    4.5904313 0.0094377928 
  489000    1.0032884    23.981739    4.5998015    1.5049289    6.1047304    4.5906402 0.0091612823 
  490500    1.0004372    24.012891    4.5997312    1.5006521    6.1003833    4.5902404 0.0094908234 
  492000     1.000534    23.953763    4.5973803    1.5007973    6.0981777    4.5882388 0.0091415885 
  493500    1.0011043    23.944845    4.5982431    1.5016527    6.0998958    4.5886106 0.0096325173 
  495000    1.0008312    23.926825    4.5991666    1.5012431    6.1004097     4.589991 0.0091756373 
  496500   0.99882183    23.934913    4.5979252     1.498229    6.0961542    4.5883648 0.0095603762 
  498000   0.99814942     23.94087    4.6004341    1.4972204    6.0976545    4.5917051 0.0087290094 
  499500    1.0009049    23.913291    4.5967669    1.5013537    6.0981206    4.5873919 0.0093750114 
  501000     1.001666    24.025363    4.5977749    1.5024953    6.1002702    4.5884537 0.0093212584 
  502500    1.0010179    23.972596    4.5985793    1.5015231    6.1001024     4.589442 0.0091373108 
  504000    1.0017186    23.964276    4.5969935    1.5025741    6.0995677     4.588267 0.0087265685 
  505500   0.99870597    23.904861     4.598319    1.4980552    6.0963742    4.5881598  0.010159199 
  507000     1.001925    23.951937     4.601406    1.5028837    6.1042896    4.5916667 0.0097392407 
  508500    1.0005019    23.965863    4.5962879    1.5007492     6.097037    4.5870427 0.0092451582 
  510000   0.99969536    24.011495    4.5999476    1.4995393    6.0994869    4.5909735 0.0089740369 
  511500    1.0006755     23.99795    4.5974025    1.5010095     6.098412    4.5888303 0.0085721582 
  513000    1.0011852    23.914149    4.5984668    1.5017741    6.1002409      4.58939  0.009076736 
  514500   0.99971763    24.005824    4.5993968    1.4995727    6.0989695     4.590307 0.0090897745 
  516000    1.0007332    23.968323    4.5986055     1.501096    6.0997015    4.5890927  0.009512793 
  517500   0.99978371    24.011132    4.5988401    1.4996718    6.0985119    4.5895198 0.0093203076 
  519000     1.002154    23.958599    4.5988985    1.5032272    6.1021257    4.5893917 0.0095068336 
  520500    1.0002983    23.918455    4.5983544    1.5004437    6.0987981    4.5889672 0.0093872434 
  522000    1.0010651    23.942018    4.6002079    1.5015939    6.1018018    4.5913288 0.0088791253 
  523500    1.0014184    23.955629    4.6006803    1.5021238    6.1028041    4.5910934 0.0095869205 
  525000    1.0013011    23.960141    4.5979426    1.5019479    6.0998905    4.5891754 0.0087671783 
  526500    1.0012434    23.943367     4.597899    1.5018613    6.0997603    4.5885095 0.0093895261 
  528000    1.0009633    23.902436    4.5994016    1.5014412    6.1008429    4.5904976 0.0089040316 
  529500    1.0004424    23.998071    4.5981519    1.5006598    6.0988117    4.5889288 0.0092230656 
  531000     1.001092    23.998065    4.5977692    1.5016343    6.0994034    4.5887012  0.009067955 
  532500    1.0015425    23.966832    4.5999054      1.50231    6.1022154    4.5910741 0.0088313137 
  534000   0.99947868    23.982037    4.5986984    1.4992143    6.0979127    4.5895251 0.0091733048 
  535500     1.001105    24.009704      4.59899    1.5016538    6.1006438    4.5894258  0.009564245 
  537000    1.0020387    23.891175    4.5967053    1.5030544    6.0997597    4.5874935 0.0092117729 
  538500   0.99889756    24.007162    4.6001364    1.4983426     6.098479    4.5905747 0.0095617131 
  540000    1.0003444    23.975087    4.5999149    1.5005129    6.1004278    4.5904739 0.0094410179 
  541500    1.0032918    23.982025    4.5987719     1.504934    6.1037059    4.5897035 0.0090684085 
  543000    1.0021801    24.001546    4.6009528    1.5032663    6.1042191    4.5916505 0.0093022886 
  544500    1.0004078     23.99576    4.5990478    1.5006079    6.0996557    4.5900564 0.0089914143 
  546000    1.0003639     23.91712    4.5973985     1.500542    6.0979405    4.5883201 0.0090783131 
  547500    1.0031511    24.012627    4.5999977    1.5047229    6.1047207    4.5908311 0.0091665811 
  549000    1.0000015     24.04964    4.5975384    1.4999986     6.097537    4.5883649 0.0091735254 
  550500   0.99845487    23.999243    4.5966483    1.4976786    6.0943269    4.5875554 0.0090929338 
  552000    1.0005302    23.954255      4.59689    1.5007915    6.0976815    4.5873519 0.0095380995 
  553500    1.0009661    23.960076    4.5989975    1.5014454    6.1004429    4.5898178 0.0091797452 
  555000    1.0027844    23.963919    4.5964848    1.5041728    6.1006576    4.5869581 0.0095267598 
  556500   0.99974526    23.936594    4.5962458    1.4996141    6.0958599    4.5872395 0.0090062491 
  558000   0.99990711    23.900987    4.5988063    1.4998569    6.0986632    4.5892787 0.0095276283 
  559500    1.0023843    23.972792    4.5980939    1.5035727    6.1016666    4.5888283 0.0092656121 
  561000   0.99800509    23.989005    4.6006937    1.4970039    6.0976976    4.5914813 0.0092123443 
  562500    1.0021076    24.021088    4.5991323    1.5031576    6.1022899    4.5899289 0.0092033297 
  564000   0.99945014    23.915993    4.6012145    1.4991715     6.100386    4.5922455 0.0089690543 
  565500    1.0017011    23.977862    4.5965736    1.5025479    6.0991215    4.5876468 0.0089268948 
  567000    1.0007294    23.979985    4.5981069    1.5010904    6.0991973    4.5891907 0.0089162532 
  568500   0.99972029    23.944041    4.5986369    1.4995767    6.0982136    4.5889729 0.0096640766 
  570000    1.0017955    23.985492    4.5953544    1.5026896    6.0980439    4.5859447  0.009409617 
  571500   0.99890626    23.980178    4.5995947    1.4983557    6.0979504    4.5902342 0.0093605061 
  573000    1.0028114    24.026515    4.5978855    1.5042133    6.1020988    4.5883694 0.0095160974 
  574500     1.000412    23.967716    4.5994863    1.5006143    6.1001006    4.5900371 0.0094492175 
  576000    1.0002245    23.964998    4.5994528     1.500333    6.0997858    4.5899989 0.0094538999 
  577500     1.000676    23.989605    4.5997105    1.5010102    6.1007207     4.590454 0.0092564591 
  579000    1.0020105    23.905233    4.5981962     1.503012    6.1012083    4.5886043 0.0095919454 
  580500     1.001173    23.925751    4.5992461    1.5017557    6.1010018    4.5902698 0.0089763129 
  582000    1.0008346    24.008344     4.597483    1.5012481    6.0987311    4.5884636   0.00901943 
  583500    1.0005304    23.938704    4.5977865    1.5007919    6.0985784    4.5888838 0.0089027154 
  585000    1.0025471    23.957257    4.5982448    1.5038169    6.1020617    4.5888488 0.0093959686 
  586500   0.99966833    23.978294    4.5988148    1.4994988    6.0983136    4.5894087  0.009406122 
  588000   0.99799514    23.895057    4.5986372     1.496989    6.0956262    4.5901209 0.0085162814 
  589500   0.99921272     23.95974    4.5992554    1.4988153    6.0980707    4.5897222 0.0095332184 
  591000   0.99845548    23.979287    4.5964852    1.4976795    6.0941646    4.5873723 0.0091128619 
  592500   0.99923804    24.014301    4.5972222    1.4988533    6.0960755    4.5887609 0.0084613076 
  594000    1.0011943    23.978682     4.600048    1.5017876    6.1018356    4.5901829 0.0098650594 
  595500   0.99954607    23.925747    4.5987638    1.4993154    6.0980792    4.5899772 0.0087866388 
  597000    1.0019356    23.918199    4.6000513    1.5028997     6.102951    4.5905485 0.0095027797 
  598500   0.99988117     24.00016    4.5968761     1.499818    6.0966941    4.5875686 0.0093074532 
  600000    1.0013381    23.930752    4.5978601    1.5020034    6.0998635     4.588678 0.0091820586 
  601500    1.0014365    24.041371    4.6000004     1.502151    6.1021514    4.5905541 0.0094462458 
  603000    1.0021498    23.955581    4.5995137    1.5032209    6.1027346    4.5896743 0.0098394136 
  604500     1.002857    23.964664     4.596918    1.5042817    6.1011997    4.5877343 0.0091837338 
  606000    1.0011162    24.025929    4.5990859    1.5016706    6.1007565    4.5897771 0.0093088338 
  607500    1.0006616    23.916185     4.598451    1.5009887    6.0994397    4.5892957 0.0091553174 
  609000    1.0022948    23.977313    4.5981892    1.5034384    6.1016276    4.5886728 0.0095163754 
  610500   0.99753127    23.903082     4.600746    1.4962932    6.0970392    4.5918452 0.0089007632 
  612000    1.0013682    23.942209    4.5993705    1.5020485     6.101419    4.5902007 0.0091697919 
  613500    1.0009537    23.959216    4.5988408    1.5014268    6.1002676    4.5892416 0.0095992016 
  615000    1.0025657    23.918993    4.5971825    1.5038448    6.1010273     4.588043 0.0091395285 
  616500    1.0001514    24.017236    4.5981628    1.5002234    6.0983862    4.5890587 0.0091041695 
  618000    1.0013842     23.93301    4.5996739    1.5020725    6.1017465    4.5909875 0.0086864716 
  619500   0.99865198    23.876745     4.597541    1.4979742    6.0955152    4.5886019 0.0089390908 
  621000     1.000664    24.014925    4.5979835    1.5009923    6.0989758    4.5884578 0.0095257466 
  622500    1.0002607     24.03121    4.5988332    1.5003873    6.0992205    4.5894871 0.0093461671 
  624000    1.0007148    23.905915    4.5960582    1.5010685    6.0971267     4.586415 0.0096432015 
  625500     1.001345    23.958102    4.5977169    1.5020138    6.0997307    4.5890948  0.008622159 
  627000   0.99909593    23.938123    4.5971156    1.4986402    6.0957558    4.5882345  0.008881129 
  628500   0.99833114    23.977755    4.5986842     1.497493    6.0961772    4.5897849 0.0088993738 
  630000    1.0016138    23.950992    4.5979916     1.502417    6.1004085    4.5888556 0.0091359623 
  631500   0.99920933     24.01635    4.5982961    1.4988103    6.0971064    4.5889619 0.0093342069 
  633000    0.9998028    23.964579    4.5967781    1.4997005    6.0964785    4.5874337 0.0093444128 
  634500    1.0003285    23.971471    4.5992244     1.500489    6.0997134     4.590491 0.0087333539 
  636000    1.0013062    23.952594    4.5990301    1.5019555    6.1009856     4.590203 0.0088270575 
  637500   0.99980676      23.9994    4.5998851    1.4997064    6.0995915    4.5899069 0.0099781615 
  639000    1.0015423    23.979797     4.598091    1.5023097    6.1004007    4.5889757  0.009115318 
  640500    1.0004317    23.978575    4.5995136    1.5006438    6.1001574    4.5904204 0.0090931751 
  642000   0.99929226    23.923722    4.6017257    1.4989346    6.1006604    4.5923505 0.0093752667 
  643500    0.9975783    23.906214    4.5985137    1.4963637    6.0948774    4.5892199 0.0092938664 
  645000   0.99807905    23.940944    4.5972042    1.4971148     6.094319     4.588596 0.0086081702 
  646500    1.0017061    23.966787    4.5984039    1.5025554    6.1009593    4.5889673 0.0094365243 
  648000    1.0001464    24.007071    4.5962795    1.5002159    6.0964954     4.586967  0.009312473 
  649500    0.9970784    23.951991    4.5985355    1.4956139    6.0941494     4.589464 0.0090715365 
  651000    1.0027646    24.016518    4.5987769    1.5041432    6.1029201    4.5893808  0.009396134 
  652500   0.99964746    23.926718    4.5991428    1.4994675    6.0986102    4.5900459 0.0090969238 
  654000    1.0015858    23.958722    4.5985711     1.502375    6.1009461    4.5887448 0.0098262795 
  655500   0.99881423    23.925096    4.6016737    1.4982176    6.0998913    4.5921192 0.0095544872 
  657000     1.000335    23.983069    4.5967885    1.5004987    6.0972872    4.5876708 0.0091176544 
  658500   0.99943284    23.931453    4.5996806    1.4991455    6.0988261    4.5900131 0.0096675041 
  660000   0.99973512    24.022439    4.5984176    1.4995989    6.0980165    4.5886693 0.0097482825 
  661500    1.0020935    24.032501    4.5976685    1.5031365     6.100805    4.5879679 0.0097006327 
  663000    1.0034858    23.965764    4.6017807    1.5052249    6.1070056    4.5923727 0.0094080765 
  664500   0.99939942    23.875234    4.5968189    1.4990954    6.0959142    4.5881525 0.0086663844 
  666000    1.0010952    23.947678    4.6004575    1.5016391    6.1020966    4.5908996 0.0095578886 
  667500    1.0020624    23.865792    4.5984633    1.5030899    6.1015532     4.588662 0.0098012632 
  669000    1.0035033    24.004563     4.598891    1.5052512    6.1041422     4.589169 0.0097220395 
  670500    1.0001595    23.973002    4.6000872    1.5002355    6.1003226    4.5907771 0.0093100359 
  672000     1.001615    24.051585     4.598133    1.5024187    6.1005517    4.5887324 0.0094006293 
  673500    1.0001492     23.99583    4.5985262      1.50022    6.0987462    4.5894563 0.0090699265 
  675000     1.000356    23.911389     4.599112    1.5005303    6.0996423    4.5895371 0.0095749379 
  676500   0.99928706    23.921747    4.5981751    1.4989268    6.0971019    4.5882509 0.0099241937 
  678000    1.0012551    24.013503    4.5992009    1.5018789    6.1010798    4.5899839 0.0092170146 
  679500    1.0020343    24.013812    4.5971724    1.5030477    6.1002201    4.5879842 0.0091882117 
  681000   0.99979162     23.93642    4.5974758    1.4996837    6.0971594    4.5882652 0.0092105345 
  682500    1.0008669    23.965887    4.5978767    1.5012966    6.0991733     4.588589 0.0092876582 
  684000    1.0009469    23.963471    4.5976577    1.5014166    6.0990742    4.5886645 0.0089932085 
  685500    1.0012633    24.015776    4.5967124    1.5018912    6.0986036    4.5876598 0.0090526599 
  687000    1.0024358    24.004337    4.5981562      1.50365    6.1018062    4.5889348 0.0092213775 
  688500   0.99870151    23.947487    4.5992334    1.4980485    6.0972819    4.5898034 0.0094300242 
  690000    1.0007092    23.988484    4.5992529    1.5010601    6.1003129    4.5902372 0.0090156462 
  691500    1.0015552    23.852891    4.5964715    1.5023291    6.0988006    4.5874624 0.0090090796 
  693000    1.0037366     24.02237    4.5971754    1.5056011    6.1027765    4.5881446 0.0090308488 
  694500    1.0005788    23.951726    4.5981288    1.5008644    6.0989932    4.5894871 0.0086417411 
  696000    1.0002499    23.926656    4.5974878    1.5003712     6.097859    4.5887912 0.0086966375 
  697500    1.0012523    23.984872    4.5972222    1.5018746    6.0990968    4.5877892 0.0094329417 
  699000    1.0008509    23.936484    4.5980446    1.5012727    6.0993172     4.588464 0.0095806161 
  700500   0.99995409     23.95132    4.5991541    1.4999274    6.0990815    4.5896201 0.0095340184 
  702000    1.0028082    23.965119    4.5983366    1.5042086    6.1025452    4.5885563 0.0097802642 
  703500    1.0028806    23.943481    4.5963095    1.5043172    6.1006267    4.5868777 0.0094317411 
  705000    1.0013599    23.905163    4.5971752    1.5020361    6.0992114    4.5875252 0.0096499887 
  706500     1.001061    24.009461    4.5976906    1.5015877    6.0992783    4.5885619 0.0091287815 
  708000    1.0012736    24.001875    4.5973879    1.5019066    6.0992946    4.5882749 0.0091130684 
  709500    1.0008092    23.918492    4.5988304      1.50121    6.1000405    4.5894948 0.0093356659 
  711000    1.0010538    23.909102    4.5979161    1.5015769     6.099493    4.5894086 0.0085074247 
  712500    1.0018762    23.919623    4.5978298    1.5028105    6.1006402    4.5885594  0.009270395 
  714000    1.0024727    23.976479    4.5975027    1.5037053     6.101208    4.5881792 0.0093234831 
  715500   0.99912435    23.868703    4.5969359    1.4986828    6.0956187    4.5882995 0.0086363872 
  717000    1.0005063    23.930409    4.5987393    1.5007557    6.0994951    4.5894447 0.0092946334 
  718500    1.0007912    23.985733    4.5960511     1.501183    6.0972341    4.5868243 0.0092267954 
  720000    1.0013314    23.987364    4.5979998    1.5019933    6.0999931    4.5883829 0.0096169345 
  721500   0.99920004    23.918296    4.5974525    1.4987963    6.0962488    4.5881295 0.0093229709 
  723000   0.99909755    24.005884    4.5979729    1.4986426    6.0966155    4.5886415 0.0093313566 
  724500    1.0014997    23.964962    4.5999802    1.5022458     6.102226    4.5907105 0.0092697598 
  726000   0.99986241    23.928896    4.5986686    1.4997899    6.0984584    4.5894432 0.0092254079 
  727500   0.99970901    24.004284    4.5986494    1.4995598    6.0982092    4.5894376 0.0092118436 
  729000    1.0004098    23.977767    4.6009519    1.5006109    6.1015628    4.5919109 0.0090409673 
  730500     1.002796    23.923957    4.5964927    1.5041902    6.1006829    4.5875128 0.0089799381 
  732000   0.99961924    24.023687    4.5976619    1.4994251     6.097087    4.5887136 0.0089482413 
  733500    1.0004877    23.996265    4.5991059    1.5007278    6.0998337    4.5897534 0.0093525545 
  735000    1.0018595    23.965422    4.5994572    1.5027855    6.1022427    4.5901689 0.0092883129 
  736500    1.0008161    23.919511    4.5997688    1.5012204    6.1009893    4.5907149  0.009053901 
  738000    1.0014467    23.934739    4.5982304    1.5021663    6.1003966    4.5889527 0.0092777358 
  739500    0.9980594    23.971399    4.5972566    1.4970854     6.094342    4.5880651 0.0091915047 
  741000    1.0006745    23.898232    4.5959299     1.501008     6.096938    4.5872967 0.0086332561 
  742500   0.99923771    23.988531     4.599638    1.4988528    6.0984908    4.5902518 0.0093862285 
  744000   0.99947189    23.958687    4.5969655    1.4992041    6.0961696    4.5882884 0.0086770847 
  745500    1.0007412    23.988349    4.6002549     1.501108    6.1013629    4.5910127 0.0092422185 
  747000    1.0007683    23.911529    4.5986652    1.5011487    6.0998139    4.5901149 0.0085502781 
  748500    1.0024656    23.943412    4.5976949    1.5036947    6.1013896    4.5882372 0.0094576255 
  750000   0.99880942    23.921309    4.5994354    1.4982104    6.0976458    4.5898179 0.0096174994 
  751500    1.0005025    23.907487    4.6009267    1.5007499    6.1016766    4.5922108 0.0087159026 
  753000    1.0033748    23.892477    4.6009514    1.5050585    6.1060098    4.5913998 0.0095515637 
  754500    1.0002133    24.062555    4.5985084    1.5003161    6.0988246     4.589174 0.0093344005 
  756000    1.0021142     24.06277    4.5965427    1.5031675    6.0997102    4.5875569 0.0089857011 
  757500     1.001004    23.951187    4.5985702    1.5015023    6.1000725      4.58997 0.0086002029 
  759000    1.0019631    24.033206    4.5963021    1.5029408     6.099243    4.5870155 0.0092866552 
  760500    1.0029101    23.972568    4.6002901    1.5043613    6.1046514    4.5904533 0.0098368389 
  762000    1.0006858    23.890597    4.5982468    1.5010249    6.0992716    4.5889814 0.0092653555 
  763500   0.99953059    23.931376    4.5984452    1.4992921    6.0977373    4.5895518 0.0088933519 
  765000    1.0009131    23.973498    4.5983212    1.5013659    6.0996871    4.5890437 0.0092775341 
  766500    1.0036942    23.967869    4.5977686    1.5055376    6.1033062    4.5884784 0.0092901939 
  768000   0.99944699    23.969542    4.5982081    1.4991667    6.0973749    4.5887838 0.0094243455 
  769500    1.0018194    23.925049    4.5966914    1.5027253    6.0994167    4.5873874 0.0093040414 
  771000    1.0000651    23.960309    4.5991925     1.500094    6.0992865    4.5899223 0.0092701989 
  772500    1.0022161    23.937128    4.5982884    1.5033205    6.1016089    4.5888625 0.0094258672 
  774000    1.0020371    23.971539    4.5998534    1.5030519    6.1029053    4.5900413  0.009812148 
  775500    1.0006606    23.989808    4.5986261    1.5009872    6.0996133    4.5894862 0.0091399817 
  777000   0.99925456    23.909387    4.5968165    1.4988781    6.0956946    4.5871249 0.0096915517 
  778500   0.99961126    23.903941    4.6006758    1.4994131     6.100089    4.5911916 0.0094841842 
  780000     1.001793      24.0322    4.5994684    1.5026857    6.1021541    4.5900343   0.00943414 
  781500     1.001238    23.957028    4.6009457    1.5018532    6.1027989    4.5913629 0.0095828052 
  783000   0.99975752    24.029352    4.5971001    1.4996325    6.0967327    4.5880738 0.0090263518 
  784500    1.0034992    23.927136    4.5990689     1.505245    6.1043139    4.5900943 0.0089746114 
  786000    1.0006846    23.943379    4.5980559    1.5010232    6.0990791     4.588996 0.0090598761 
  787500    1.0005837    23.969896    4.5969553    1.5008718    6.0978271    4.5879316 0.0090237686 
  789000    1.0033185    23.948781    4.5968709    1.5049739    6.1018448    4.5876292 0.0092416272 
  790500    1.0020306    23.943679    4.5981932    1.5030422    6.1012354    4.5886802 0.0095129827 
  792000    1.0012035    23.932006    4.5969681    1.5018015    6.0987696     4.588186 0.0087821196 
  793500   0.99775167    23.977955    4.5985491    1.4966238    6.0951729    4.5894708 0.0090783062 
  795000    1.0021257      23.9296    4.5973807    1.5031849    6.1005656    4.5884845 0.0088962332 
  796500   0.99976873    23.912522     4.601214    1.4996493    6.1008633    4.5916833 0.0095306921 
  798000   0.99981491    23.967019    4.5988327    1.4997186    6.0985513    4.5895683 0.0092644324 
  799500    0.9995003     23.96983    4.5967269    1.4992467    6.0959736    4.5877893 0.0089375823 
  801000     1.000699    24.004894    4.5980268    1.5010447    6.0990715    4.5887024 0.0093244393 
  802500    1.0015546     23.97498     4.597914    1.5023282    6.1002422    4.5883959  0.009518107 
  804000    1.0018528     23.93052    4.5978915    1.5027755    6.1006669    4.5890127 0.0088787555 
  805500    1.0011134    23.885045    4.5992586    1.5016663    6.1009249    4.5895287 0.0097298803 
  807000    1.0022344    23.971771     4.597398    1.5033478    6.1007459    4.5878574 0.0095406758 
  808500   0.99971503    23.999197    4.5974854    1.4995688    6.0970542    4.5883046 0.0091808076 
  810000    1.0017495    23.884516    4.5958058    1.5026205    6.0984263    4.5868715 0.0089343259 
  811500    1.0000246    23.956702    4.5975444    1.5000332    6.0975776    4.5879459 0.0095984627 
  813000    1.0016001    23.978095    4.5968432    1.5023965    6.0992397    4.5871298 0.0097134078 
  814500    1.0015743    23.886406    4.5985632    1.5023577    6.1009208    4.5897354 0.0088277155 
  816000    1.0000603    23.897799     4.599397    1.5000868    6.0994837    4.5902236 0.0091733489 
  817500   0.99958099    23.986464     4.598587    1.4993677    6.0979547    4.5886189 0.0099681208 
  819000     1.000416     23.97283    4.5986417    1.5006203     6.099262    4.5894617 0.0091800276 
  820500    1.0001234    23.913751     4.598452    1.5001813    6.0986333    4.5886905 0.0097614563 
  822000   0.99892045     23.94949    4.5993446    1.4983769    6.0977215    4.5900859 0.0092587187 
  823500   0.99987836    23.912014    4.5961927    1.4998138    6.0960064     4.586648 0.0095446354 
  825000   0.99984822    23.937464    4.5980753    1.4997686    6.0978439    4.5889885  0.009086806 
  826500    1.0010349    23.953698    4.5970399    1.5015486    6.0985885    4.5879783 0.0090616157 
  828000    1.0019463    23.953471    4.5970067    1.5029157    6.0999224    4.5876944 0.0093123175 
  829500    1.0002832    23.969487     4.595307     1.500421     6.095728    4.5863936 0.0089133689 
  831000     1.000326    23.920305    4.5968659    1.5004853    6.0973512    4.5877049 0.0091609712 
  832500    1.0014174    23.888285    4.5973816    1.5021224     6.099504    4.5885731 0.0088085307 
  834000    1.0014401    24.046679    4.5981085    1.5021564    6.1002649    4.5889176 0.0091908746 
  835500    1.0004803      23.8859    4.5984142    1.5007167    6.0991309    4.5894042 0.0090100006 
  837000    1.0016608     24.01817    4.5995487    1.5024874    6.1020362    4.5904602 0.0090885428 
  838500     1.002597    24.020801    4.5990438    1.5038917    6.1029355    4.5900475 0.0089962683 
  840000    1.0019084    23.950337    4.5970478    1.5028589    6.0999067    4.5879846 0.0090631891 
  841500    1.0017343    23.986837    4.5947163    1.5025977     6.097314    4.5860328 0.0086834546 
  843000    1.0006028    23.930731    4.5982423    1.5009005    6.0991428    4.5896056 0.0086367492 
  844500    1.0027246    23.956009    4.5976827    1.5040831    6.1017658    4.5883459 0.0093367627 
  846000   0.99859493    24.011753    4.5994459    1.4978887    6.0973345    4.5900637 0.0093821349 
  847500    1.0002835    23.951145     4.598033    1.5004215    6.0984545    4.5886867 0.0093463312 
  849000    1.0012091    23.936428    4.5965549      1.50181    6.0983648    4.5875429 0.0090120075 
  850500    1.0016965    23.958401    4.5982686    1.5025409    6.1008095    4.5889332 0.0093353668 
  852000    1.0006227    23.964244    4.5979643    1.5009303    6.0988945    4.5886045 0.0093597695 
  853500    1.0014917    23.984357    4.5995827    1.5022338    6.1018164    4.5900083 0.0095744003 
  855000    1.0007401     23.89486    4.5994043    1.5011065    6.1005108    4.5899076  0.009496737 
  856500    1.0033978    23.898158    4.5985881    1.5050929     6.103681    4.5890867 0.0095013851 
  858000     1.003918    23.928736    4.5990049    1.5058733    6.1048782    4.5899212 0.0090836842 
  859500    1.0023499    24.001351    4.5997509    1.5035211     6.103272    4.5907564  0.008994522 
  861000   0.99909531    23.954088    4.5979341    1.4986392    6.0965734     4.588733 0.0092011339 
  862500   0.99922426    23.974886    4.6003406    1.4988326    6.0991732      4.59146 0.0088806173 
  864000    1.0018957    24.010477    4.5986889    1.5028399    6.1015288     4.589154 0.0095349006 
  865500    1.0029518     23.91635    4.5993003    1.5044239    6.1037242    4.5901128 0.0091874855 
  867000    1.0029806     23.99508     4.596558    1.5044671    6.1010251    4.5877674 0.0087905787 
  868500    1.0014197    23.971944    4.5995227    1.5021257    6.1016484    4.5904175  0.009105184 
  870000    1.0010277     24.01129    4.5971852    1.5015378     6.098723    4.5881287 0.0090564959 
  871500     1.000004    23.991081    4.5980126    1.5000023    6.0980149    4.5885467 0.0094658879 
  873000    1.0031469     23.93398    4.5987364    1.5047166     6.103453    4.5894957 0.0092407155 
  874500    1.0019907    23.912486    4.5967732    1.5029823    6.0997555    4.5871982 0.0095750486 
  876000    1.0011101    23.969619    4.6014576    1.5016614    6.1031191    4.5922158 0.0092418519 
  877500    1.0020198    23.960148    4.5998237     1.503026    6.1028497    4.5909241 0.0088996605 
  879000    1.0017187    24.002493    4.5954894    1.5025744    6.0980638    4.5861713 0.0093180814 
  880500   0.99791726    23.931734    4.5961458    1.4968721    6.0930179    4.5869541 0.0091916718 
  882000    1.0006097    23.971132    4.5983562    1.5009108     6.099267    4.5892314  0.009124802 
  883500   0.99995116     23.92858    4.5964676     1.499923    6.0963906    4.5874922 0.0089754259 
  885000    1.0015525     23.92463    4.5985779     1.502325    6.1009029    4.5891291  0.009448744 
  886500    1.0001359    23.990608    4.5987726    1.5002001    6.0989727    4.5894356 0.0093370389 
  888000    1.0005132    23.923303    4.5960894     1.500766    6.0968555    4.5866547 0.0094347504 
  889500    1.0008282    24.045491     4.599662    1.5012386    6.1009006    4.5902308 0.0094311752 
  891000      1.00044     23.92783    4.5970331    1.5006563    6.0976894    4.5879657 0.0090673718 
  892500    1.0029118     23.91751    4.5975862    1.5043639    6.1019501    4.5878313 0.0097549347 
  894000    1.0001146     23.94482    4.5962552    1.5001681    6.0964233    4.5867478  0.009507435 
  895500    1.0031171    23.949205     4.598253    1.5046719     6.102925    4.5891434 0.0091096173 
  897000    1.0021301    23.896108    4.5979452    1.5031913    6.1011365    4.5885988 0.0093463682 
  898500    0.9989286     23.97148    4.5968709    1.4983892      6.09526    4.5875331 0.0093377914 
  900000    0.9987539    23.950878    4.5982148    1.4981271    6.0963419    4.5887474 0.0094674013 
  901500    1.0007382    23.937774    4.6008506    1.5011036    6.1019543    4.5913907 0.0094599939 
  903000     1.002172    23.943692    4.5993549    1.5032543    6.1026091    4.5898772 0.0094776821 
  904500   0.99885438    23.885978    4.5990058    1.4982778    6.0972836    4.5892843 0.0097215695 
  906000    1.0013061    23.946944    4.5977453    1.5019554    6.0997007    4.5884249 0.0093204556 
  907500    1.0002326    23.937442    4.5991027    1.5003452    6.0994479    4.5895937 0.0095089689 
  909000    1.0000967    23.960348    4.5993571    1.5001412    6.0994983    4.5907475 0.0086095649 
  910500    1.0000123    23.916586    4.5975301    1.5000148    6.0975449    4.5875159  0.010014254 
  912000    1.0003386    23.950424    4.5985069    1.5005042    6.0990111     4.589481 0.0090259323 
  913500    1.0010281    23.965288    4.5963406    1.5015384    6.0978789    4.5873891 0.0089515043 
  915000    1.0014218    23.976616    4.6001866     1.502129    6.1023156    4.5912439 0.0089427142 
  916500    1.0022997    23.999072     4.599227    1.5034458    6.1026727    4.5905874 0.0086395463 
  918000   0.99961882     23.92199    4.5996226    1.4994245    6.0990471    4.5907825 0.0088400314 
  919500    1.0006261    23.963633     4.599328    1.5009353    6.1002633    4.5904878 0.0088402509 
  921000    1.0028281    24.002068    4.5985169    1.5042384    6.1027553    4.5893717 0.0091451802 
  922500    1.0026585    23.998587    4.6013503     1.503984    6.1053343    4.5915229 0.0098274008 
  924000   0.99862698    23.956785    4.5974544    1.4979367    6.0953911    4.5882688 0.0091856334 
  925500    1.0020521    23.982508    4.5972901    1.5030744    6.1003645     4.587481 0.0098091089 
  927000    1.0017151    23.957815    4.5989729    1.5025688    6.1015417    4.5896814 0.0092915272 
  928500   0.99822862    24.009729    4.5995977    1.4973392    6.0969368     4.590329 0.0092686403 
  930000   0.99828775    23.961785    4.5977899    1.4974279    6.0952178    4.5884385 0.0093513866 
  931500    1.0022925     23.93329    4.5994478    1.5034351    6.1028828    4.5900362 0.0094115411 
  933000    1.0010907    23.941783    4.6004218    1.5016323    6.1020541    4.5913101 0.0091116857 
  934500    1.0015469    23.923316    4.5975056    1.5023166    6.0998222    4.5884433 0.0090623067 
  936000   0.99943824    23.986607    4.5979359    1.4991536    6.0970895    4.5889545  0.008981446 
  937500   0.99962008    23.943605    4.5968707    1.4994264    6.0962971    4.5878171 0.0090536408 
  939000    1.0004737    23.996674    4.5986949    1.5007068    6.0994017    4.5893612 0.0093336465 
  940500   0.99999183    23.952155    4.6002576     1.499984    6.1002416    4.5908923 0.0093653109 
  942000   0.99875982    23.913157    4.5980238     1.498136    6.0961598    4.5887336 0.0092901299 
  943500    1.0009456    23.943203    4.5969969    1.5014146    6.0984115    4.5879385 0.0090584297 
  945000    1.0012943    23.966221    4.5954288    1.5019377    6.0973666    4.5864754 0.0089534923 
  946500    1.0019794    23.965681    4.5969695    1.5029653    6.0999348    4.5878192 0.0091502776 
  948000     1.000788     23.93581    4.5979145    1.5011783    6.0990928    4.5889427 0.0089718109 
  949500    1.0019276    23.986756    4.5978904    1.5028877    6.1007781    4.5893756 0.0085147809 
  951000    1.0015022     23.98027    4.5977588    1.5022495    6.1000082    4.5879791 0.0097796423 
  952500    1.0017331    23.950244    4.5959176    1.5025959    6.0985135    4.5866055 0.0093120877 
  954000   0.99945773    23.918722    4.6008959    1.4991829    6.1000787    4.5917912 0.0091047091 
  955500    1.0030483    23.959092    4.5993439    1.5045687    6.1039126    4.5903888 0.0089551368 
  957000    1.0014054     23.98417    4.5968348    1.5021044    6.0989392    4.5878079 0.0090268597 
  958500    1.0026462    23.965555    4.5991731    1.5039655    6.1031386    4.5899953 0.0091778443 
  960000     1.002156    23.963772    4.5970595    1.5032303    6.1002898     4.588204 0.0088555464 
  961500    1.0034534    23.889524    4.5966609    1.5051763    6.1018372    4.5874937 0.0091671999 
  963000    1.0010614     23.85996    4.5951572    1.5015883    6.0967455    4.5860768 0.0090803961 
  964500   0.99998452    23.926631    4.5985928     1.499973    6.0985659    4.5894495 0.0091433553 
  966000    1.0017429    23.989044    4.5966113    1.5026106    6.0992219    4.5876776 0.0089337355 
  967500    1.0015314     24.01404    4.5956691    1.5022933    6.0979624    4.5861342 0.0095348827 
  969000    1.0031036    24.017721    4.6011348    1.5046516    6.1057864    4.5912028 0.0099319955 
  970500    1.0000236    23.983115     4.599657    1.5000316    6.0996886    4.5903693 0.0092877203 
  972000   0.99797455    23.912096    4.6007975    1.4969581    6.0977556    4.5916189 0.0091786364 
  973500    1.0030229    23.950641    4.5977037    1.5045306    6.1022343    4.5887633 0.0089403975 
  975000    1.0008625     23.98547    4.5992573    1.5012901    6.1005474     4.590288 0.0089692905 
  976500    1.0007965    23.991676     4.599155     1.501191     6.100346    4.5900313 0.0091236224 
  978000    1.0002595    23.908698    4.5967002    1.5003855    6.0970857    4.5882916 0.0084085913 
  979500   0.99944757     23.94325    4.5960325    1.4991676    6.0952001    4.5864127 0.0096198606 
  981000   0.99835751    23.951044    4.5967872    1.4975325    6.0943197    4.5869526 0.0098346191 
  982500    1.0009277    24.000858    4.5970011    1.5013878    6.0983889    4.5879135 0.0090875436 
  984000    1.0015807    23.887049    4.5999049    1.5023674    6.1022723     4.590173 0.0097318662 
  985500    1.0021205    23.957158    4.5993936     1.503177    6.1025706    4.5906143  0.008779263 
  987000    1.0009916     23.96299    4.5995454    1.5014836     6.101029    4.5898219 0.0097234205 
  988500     1.003614    23.950598    4.5990395    1.5054173    6.1044568    4.5896421  0.009397377 
  990000    1.0026239    23.964272     4.596843     1.503932     6.100775    4.5876668 0.0091761881 
  991500    1.0018036    23.949581    4.5985393    1.5027016    6.1012409     4.589612 0.0089272775 
  993000    1.0020114    23.975931    4.5984445    1.5030134    6.1014579    4.5896894 0.0087550467 
  994500    1.0020498    23.962461     4.599659     1.503071      6.10273     4.590855 0.0088040549 
  996000    1.0013133    24.033298    4.5973361    1.5019662    6.0993023    4.5875239  0.009812145 
  997500   0.99895113    23.969891    4.5975903     1.498423    6.0960132    4.5885026 0.0090876545 
  999000    1.0001783    23.924357     4.599298    1.5002637    6.0995617     4.589976 0.0093219578 
 1000500    1.0020783    23.990744    4.5981286    1.5031137    6.1012422    4.5887147 0.0094139083 
 1002000    1.0006162    23.923801    4.5997808    1.5009205    6.1007013    4.5903021 0.0094787448 
 1003500    1.0006156    23.949176    4.5974426    1.5009196    6.0983622    4.5885933 0.0088492827 
 1005000   0.99840852    23.917774    4.5970414     1.497609    6.0946505    4.5883442 0.0086972042 
 1006500   0.99967742    24.020133    4.5995477    1.4995124      6.09906    4.5909114 0.0086362568 
 1008000    1.0014384    23.927646    4.5992557    1.5021538    6.1014095    4.5899175 0.0093381845 
 1009500    1.0022634    23.963987     4.597801    1.5033914    6.1011923    4.5883451 0.0094558241 
 1011000   0.99945642    23.947841    4.5976255    1.4991809    6.0968064    4.5884753 0.0091502059 
 1012500    1.0011004    24.006293    4.5987776    1.5016468    6.1004244    4.5899145 0.0088631013 
 1014000    1.0013637    23.941257    4.5993944    1.5020418    6.1014362    4.5903916 0.0090027282 
 1015500   0.99922041    23.978371    4.5973905    1.4988269    6.0962174    4.5883359 0.0090546565 
 1017000     1.000887    23.994752    4.5984267    1.5013268    6.0997535    4.5893235  0.009103174 
 1018500    1.0000936    23.925051    4.5984469    1.5001366    6.0985834    4.5893969 0.0090499477 
 1020000   0.99900906    23.969739    4.5995976    1.4985098    6.0981074    4.5902854 0.0093122002 
 1021500    1.0005773    23.922448     4.596832    1.5008623    6.0976943     4.587246 0.0095859587 
 1023000    1.0016733    23.965062    4.5991058    1.5025062     6.101612     4.590318 0.0087877739 
 1024500    1.0008349    24.034243    4.6003142    1.5012486    6.1015628    4.5905758 0.0097384321 
 1026000    1.0021027    23.885048    4.5979855    1.5031503    6.1011359    4.5884886 0.0094968794 
 1027500      1.00077    23.984117    4.5975883    1.5011512    6.0987395    4.5882581 0.0093301743 
 1029000    1.0007828    23.871463    4.5975586    1.5011705    6.0987291     4.588729 0.0088296299 
 1030500    1.0010571     23.89673    4.5990653    1.5015818    6.1006472    4.5898709 0.0091943822 
 1032000    1.0012586    23.984032    4.5980598    1.5018841    6.0999439    4.5888443 0.0092154701 
 1033500    1.0014862    23.803257    4.5995942    1.5022256    6.1018198    4.5901162 0.0094779378 
 1035000    1.0004494    23.982759    4.5988227    1.5006704     6.099493    4.5898289 0.0089937505 
 1036500     1.000311    24.017847    4.5964494    1.5004627    6.0969121    4.5874479 0.0090014899 
 1038000   0.99878867     24.05988    4.5983683    1.4981793    6.0965476     4.588944 0.0094243548 
 1039500    1.0007473     24.05796    4.5976898    1.5011172     6.098807    4.5884432 0.0092465245 
 1041000    1.0002792    23.954246    4.6001093     1.500415    6.1005243    4.5904538 0.0096554723 
 1042500    1.0008565    23.970607    4.5969458    1.5012809    6.0982268    4.5875123 0.0094335315 
 1044000   0.99834087    23.940849     4.597529    1.4975076    6.0950365    4.5879939  0.009535133 
 1045500    1.0023634    23.961967    4.5976547    1.5035413     6.101196    4.5883099 0.0093447907 
 1047000    1.0013444    24.034678    4.5968389    1.5020128    6.0988517    4.5875966 0.0092422437 
 1048500     1.001597    23.979581    4.5976172    1.5023918     6.100009    4.5883754 0.0092418436 
 1050000    1.0017164    23.981401    4.5978757    1.5025709    6.1004465    4.5886208 0.0092549193 
 1051500   0.99915401    23.856788    4.5983124    1.4987273    6.0970396    4.5895623 0.0087500639 
 1053000   0.99925218    23.914954    4.5969209    1.4988745    6.0957954     4.587677 0.0092439237 
 1054500    1.0024751    23.956484     4.600538    1.5037088    6.1042468    4.5911593 0.0093787237 
 1056000    1.0025435    23.989232    4.5985836    1.5038115    6.1023951    4.5893307 0.0092528204 
 1057500     1.000223    23.891495    4.5972028    1.5003307    6.0975335    4.5876277  0.009575167 
 1059000    1.0000488    23.938939    4.5979516    1.5000694    6.0980211    4.5890995 0.0088521368 
 1060500    1.0005855    24.013513    4.5978558    1.5008745    6.0987303    4.5884818 0.0093740384 
 1062000   0.99794838      23.9281    4.5995202    1.4969188     6.096439     4.589727 0.0097931269 
 1063500    1.0001325    23.955951    4.5982722     1.500195    6.0984671    4.5889435 0.0093286895 
 1065000    0.9984037     23.97872    4.5963789    1.4976018    6.0939807    4.5872597 0.0091192402 
 1066500   0.99897401    23.903723    4.5966396    1.4984573    6.0950968    4.5869676 0.0096719369 
 1068000    1.0007082    23.944781    4.5959533    1.5010585    6.0970118    4.5864603 0.0094930439 
 1069500    1.0013373    23.931879    4.6000674    1.5020022    6.1020696    4.5905311 0.0095362843 
 1071000    1.0014762    24.005064    4.6003209    1.5022105    6.1025314    4.5912666 0.0090543063 
 1072500    1.0018233    23.952435     4.598907    1.5027312    6.1016382    4.5891961 0.0097109001 
 1074000    1.0020771    23.943273      4.59737    1.5031119    6.1004819    4.5883244 0.0090456642 
 1075500   0.99879564    23.915335    4.5989859    1.4981897    6.0971756    4.5905085  0.008477439 
 1077000    1.0002171    23.965612    4.5964686     1.500322    6.0967906    4.5871185  0.009350085 
 1078500    1.0008669    23.924512    4.6012163    1.5012966    6.1025129    4.5915394 0.0096768996 
 1080000   0.99981519    23.997193    4.5976788     1.499719    6.0973978    4.5885153 0.0091634749 
 1081500    1.0000147    23.961318    4.5971273    1.5000183    6.0971456    4.5877515 0.0093758318 
 1083000    1.0009843    23.956385    4.5962572    1.5014727    6.0977298    4.5869455 0.0093116718 
 1084500    1.0010967    23.954578    4.5995808    1.5016413    6.1012221    4.5908632 0.0087176433 
 1086000    1.0013222    23.978335    4.5972208    1.5019795    6.0992004    4.5880824 0.0091384507 
 1087500    1.0034715    23.975842    4.5993735    1.5052035     6.104577    4.5898185 0.0095550111 
 1089000    1.0010212    23.983278    4.5978769    1.5015281     6.099405    4.5887311 0.0091458426 
 1090500   0.99861788    23.942596    4.5982345    1.4979231    6.0961576    4.5888641  0.009370368 
 1092000   0.99885777    23.953491    4.5987542    1.4982829    6.0970371      4.58968 0.0090742622 
 1093500    1.0011603    23.964764    4.5984765    1.5017367    6.1002132    4.5887844 0.0096920368 
 1095000    1.0024164    23.959488    4.5982616    1.5036208    6.1018823    4.5883314 0.0099301268 
 1096500    1.0029508    23.962702    4.5989875    1.5044225      6.10341    4.5893611 0.0096264938 
 1098000    1.0001658    23.876856    4.5990309    1.5002449    6.0992758    4.5898665 0.0091644313 
 1099500     1.002345    23.942471    4.5979288    1.5035137    6.1014425    4.5892508  0.008678052 
 1101000    1.0028686    23.946379    4.5992202    1.5042991    6.1035193    4.5902896  0.008930583 
 1102500    1.0007593    23.921062    4.5977793    1.5011352    6.0989145    4.5885217  0.009257555 
 1104000    1.0009965    23.980436    4.5997027     1.501491    6.1011937    4.5907365 0.0089661954 
 1105500   0.99797466    23.950784    4.5983901    1.4969582    6.0953483    4.5887565 0.0096335823 
 1107000    1.0003048    23.931676    4.5979087    1.5004535    6.0983622    4.5882595 0.0096491609 
 1108500   0.99959541     23.91746      4.59889    1.4993894    6.0982794      4.58955  0.009340035 
 1110000    1.0013415     24.01499    4.5973949    1.5020085    6.0994034    4.5875232 0.0098717356 
 1111500    1.0018497    23.927824    4.5984116    1.5027708    6.1011824    4.5888203 0.0095913352 
 1113000    1.0008068    23.909833    4.5972011    1.5012065    6.0984076    4.5882169 0.0089842026 
 1114500    1.0014083    23.979041    4.5972442    1.5021086    6.0993529    4.5881776 0.0090666673 
 1116000    1.0002902    23.971414    4.5997596    1.5004315    6.1001911    4.5909884 0.0087711833 
 1117500    1.0010211    23.939754     4.598165     1.501528    6.0996929    4.5886664 0.0094986091 
 1119000    1.0036118    23.924121    4.5998958     1.505414    6.1053098    4.5917124 0.0081834692 
 1120500    1.0014999    23.968262    4.5963856    1.5022462    6.0986318    4.5870042 0.0093813877 
[...]
 2604000    1.0010121    23.967899    4.5963546    1.5015143    6.0978689    4.5874544 0.0089002346    5.1991273    27.216825    44.466305 
 2607000    1.0017541    23.893452    4.5960159    1.5026274    6.0986433    4.5867326 0.0092832299    7.4867076     45.70051     72.95911 
 2610000    1.0021515    23.990246    4.5975987    1.5032234    6.1008222    4.5881849 0.0094138579    33.492784    2.9675285    50.014121 
 2613000    1.0006835     23.99695    4.5950511    1.5010216    6.0960727    4.5857194 0.0093317348    14.706097    23.123765     51.89279 
 2616000    1.0032059    24.040392    4.5945402    1.5048051    6.0993453    4.5854294  0.009110819    21.441199    5.2080202    36.555839 
 2619000   0.99885032    23.886905    4.5985229    1.4982717    6.0967947    4.5893903 0.0091325751    1.5212407    21.630147     27.58422 
 2622000     1.001808     23.95593    4.5966751    1.5027083    6.0993833    4.5874482 0.0092268545    1.4767655    23.168386    33.806776 
 2625000    1.0001206     23.95394    4.5956938    1.5001771    6.0958709    4.5862961  0.009397678    11.861954     18.07218    41.061892 
 2628000    1.0015843    23.940975    4.5976456    1.5023727    6.1000183     4.587822 0.0098235715    26.510796    28.239599    75.103386 
 2631000    1.0004365    23.856738    4.5982902    1.5006511    6.0989413    4.5883151 0.0099751194    9.2096591    28.794541    52.131936 
 2634000   0.99933996    23.889086    4.5985837    1.4990062    6.0975899    4.5885967  0.009987035    29.825141    9.0125984    53.275336 
 2637000    1.0025937    23.956719    4.5954192    1.5038868    6.0993059    4.5862528 0.0091663809    19.744058    4.5099324    33.270203 
 2640000   0.99858067    23.927414    4.5964748    1.4978673     6.094342    4.5873949 0.0090798795    5.1396583     19.81849    20.135561 
 2643000     1.002647    23.923311    4.5976831    1.5039668    6.1016499    4.5883517 0.0093313765    23.726553     22.00033     62.72546 
 2646000    1.0029843    23.977959    4.5940313    1.5044728     6.098504    4.5852006 0.0088306079    7.2528569    40.334892    65.278087 
 2649000    1.0004909    24.007053    4.5961886    1.5007326    6.0969212     4.586589 0.0095995343    12.300219    17.282512    40.579857 
 2652000    1.0009585    23.984566    4.5961787     1.501434    6.0976127    4.5871435 0.0090351752     2.015173    18.782969    28.529674 
 2655000   0.99968366    23.939168    4.5948284    1.4995217    6.0943501     4.585302 0.0095263505    7.8850668    5.4146308    18.243746 
 2658000   0.99974343    23.899307    4.5980186    1.4996114      6.09763    4.5886691 0.0093494862    25.493266    32.974143    80.202168 
 2661000   0.99929893    23.910466    4.5989687    1.4989446    6.0979133    4.5891577 0.0098110208    5.0624352    26.440818    43.214318 
 2664000    1.0003324    23.911568    4.5964814    1.5004949    6.0969763    4.5875157 0.0089657419    2.2874495    24.621439    36.912037 
 2667000   0.99891871    23.961096    4.5978524    1.4983743    6.0962268    4.5888824 0.0089700065     27.53638    4.9474827    44.559461 
 2670000    1.0019732    23.950657    4.5961281     1.502956    6.0990841    4.5871712 0.0089569045     20.92465    14.956117    49.219135 
 2673000    1.0005037     23.93763     4.594378    1.5007518    6.0951298      4.58468 0.0096979849    3.5004186    41.633417    61.911952 
 2676000   0.99773624    23.940922    4.5948988    1.4966006    6.0914995    4.5859384 0.0089604204    19.478272    32.510993    71.315829 
 2679000    1.0008313    23.977433    4.5990688    1.5012432    6.1003119    4.5897095 0.0093592804    15.821611    17.444677    45.632746 
 2682000    1.0006696    23.872022    4.5976471    1.5010007    6.0986478     4.588232 0.0094151529    7.7813951    18.039119    35.419069 
 2685000     1.001692    23.888507    4.5955711    1.5025343    6.0981054    4.5865097 0.0090613993    4.0860261    24.273064    38.901339 
 2688000    1.0052856     24.02132    4.5975533    1.5079247     6.105478    4.5883923 0.0091609842     22.22112    24.952743    64.710344 
 2691000    1.0029181    23.938809    4.5995917    1.5043733    6.1039651    4.5898978 0.0096939138    21.813079    14.344371    49.598671 
 2694000   0.99884619    23.923684    4.5980144    1.4982655    6.0962799    4.5885817 0.0094326518    26.300114    10.180109    50.041433 
 2697000    1.0008004    23.926483    4.5951394    1.5011969    6.0963363    4.5858454 0.0092939778    19.015953    5.3464976    33.418983 
 2700000     1.002989    23.986732    4.5936566    1.5044798    6.0981363    4.5842318 0.0094247175    49.110505      2.17284     70.34749 
 2703000    1.0005871    23.943834    4.5998617    1.5008769    6.1007386    4.5901006 0.0097611256    1.7956898    32.960484    47.676484 
 2706000   0.99983519    23.957019    4.5953707     1.499749    6.0951197    4.5860589 0.0093118119  0.080003761    14.588301    20.121122 
 2709000   0.99990554    23.894344    4.5960756    1.4998546    6.0959302    4.5866321 0.0094435194    14.575714    8.4829544    31.630531 
 2712000    1.0033044    23.929542    4.5960092    1.5049528     6.100962    4.5870533  0.008955947    16.565158    9.8736037    36.267145 
 2715000   0.99952541    24.017012    4.5974376    1.4992844    6.0967219    4.5882981  0.009139462    3.4738199    19.537409    22.035091 
 2718000    1.0005219    23.977969    4.5972593    1.5007791    6.0980384    4.5879286 0.0093306703    25.080543    1.6475564    32.143999 
 2721000    1.0021017    23.993796    4.5969822    1.5031488     6.100131    4.5877508 0.0092313224    27.001656     2.993397    32.933123 
 2724000    1.0019335    23.972015    4.5988499    1.5028965    6.1017464    4.5887788  0.010071163    20.663636    11.080085    43.544177 
 2727000    1.0004606    23.932374    4.5962568    1.5006872    6.0969439    4.5872892 0.0089675171    6.1382897    19.307928    34.905632 
 2730000    1.0027561    23.987867     4.595262    1.5041304    6.0993925    4.5862852 0.0089768092    14.788435   0.20443459     20.56634 
 2733000    1.0012325    23.980629    4.5956364     1.501845    6.0974813    4.5864669 0.0091694745    22.943254    2.0898493    34.338946 
 2736000    1.0011059    23.952017    4.5993261    1.5016551    6.1009812    4.5900233 0.0093028066    13.411693    20.204757    46.113078 
 2739000     1.000748    23.971763    4.5982022    1.5011183    6.0993205    4.5892704  0.008931841    6.8581477    6.6025398    18.464583 
 2742000     1.003179    24.002006    4.5973766    1.5047648    6.1021413    4.5877693 0.0096072418    7.4914485    17.897831    34.827526 
 2745000    1.0005796    24.000959    4.5963577    1.5008656    6.0972233    4.5870014 0.0093562524    13.238875    31.502127    61.373087 
 2748000     1.002723    23.888191     4.594579    1.5040808    6.0986598    4.5855448 0.0090342126    26.519175    23.030658    67.969559 
 2751000   0.99987385    23.864064    4.5972555     1.499807    6.0970625    4.5876347 0.0096207334    10.377853    22.753496    45.447644 
 2754000   0.99983216    23.888589    4.5964106    1.4997445    6.0961551    4.5881766 0.0082339554    15.427034    19.856821    48.400326 
 2757000    1.0043049    23.932802     4.600724    1.5064535    6.1071776    4.5914989 0.0092251073   0.34066646     11.18457    15.809644 
 2760000   0.99979686     23.94209    4.5953356    1.4996916    6.0950272    4.5866827 0.0086529189    39.362456    15.152499    33.209802 
 2763000   0.99947221     23.90946    4.5972952    1.4992046    6.0964998    4.5886088  0.008686496    37.900701     16.37192    74.448003 
 2766000   0.99930699    23.964915    4.5966674    1.4989567    6.0956241    4.5871378 0.0095295672    24.474288    9.9669113     47.24442 
 2769000    1.0004302    23.881345    4.5980363    1.5006416    6.0986778    4.5892285 0.0088077538     38.95198    1.8471453     55.96585 
 2772000    1.0015593      23.9945    4.5995951    1.5023351    6.1019302    4.5896848 0.0099103043    30.992327    6.3175679     33.84739 
 2775000   0.99996146    23.907423     4.597502    1.4999384    6.0974404    4.5881209 0.0093810465    36.676055    1.7800599    52.751846 
 2778000   0.99959389     23.95665    4.5945922    1.4993871    6.0939793    4.5852018 0.0093903924    7.4841367    19.012815    36.346967 
 2781000   0.99976598    23.972921    4.5964791    1.4996452    6.0961244    4.5877349 0.0087442714    23.937397    14.506139    52.734592 
 2784000    1.0009931    23.868087    4.5983177    1.5014859    6.0998035    4.5888022 0.0095154993    28.128827    20.942997    67.313854 
 2787000    1.0014562    23.962104    4.5962088    1.5021806    6.0983893     4.587323  0.008885803    9.6664882    25.192431    47.817424 
 2790000     1.001233    23.955479    4.5973547    1.5018458    6.0992005     4.588448 0.0089067749    15.641773    6.2148161    12.931348 
 2793000    1.0020037    23.888328    4.5970133    1.5030018    6.1000151    4.5885773 0.0084360371     28.33016    6.7003638    29.670487 
 2796000    1.0008327    23.930558    4.5960546    1.5012452    6.0972998     4.587067  0.008987613    4.9030316     32.10962    37.320404 
 2799000   0.99757955    23.829785    4.5975805    1.4963656    6.0939461     4.588038 0.0095424801     9.642913    5.1462586     20.28692 
 2802000    1.0031771    23.885121    4.5962706    1.5047619    6.1010325    4.5870328 0.0092378687     17.67181    25.759977    59.577181 
 2805000   0.99854111    23.913913    4.5987104    1.4978079    6.0965183     4.589776 0.0089343835    22.384232    12.816313    48.286046 
 2808000   0.99791109    23.914064    4.5970818    1.4968629    6.0939447    4.5883452 0.0087366369    10.871802     31.09392    27.739518 
 2811000   0.99959982    23.935681     4.596693     1.499396     6.096089    4.5873464 0.0093465984    22.507383    21.027882    59.719127 
 2814000    1.0016502    24.015408    4.5972521    1.5024716    6.0997237    4.5883551 0.0088969862    24.883552        9.559    47.246276 
 2817000      1.00166    23.890337    4.5967275    1.5024863    6.0992138    4.5877103 0.0090171856    16.714925    22.899762    54.341107 
 2820000   0.99997587    23.934071     4.596504    1.4999601    6.0964641     4.587164 0.0093399965    21.431122    20.839977    57.985019 
 2823000    1.0003812    23.924581    4.5965902    1.5005681    6.0971582    4.5869782 0.0096120002    9.2798276     25.44556    47.634254 
 2826000   0.99945526    24.031791    4.5986803    1.4991791    6.0978595    4.5895491 0.0091312574    13.008849    18.451346    43.155254 
 2829000   0.99900585    23.939475    4.5973639     1.498505    6.0958689     4.587396 0.0099679371    16.014477    5.7145723    29.806637 
 2832000    1.0000219    23.977805    4.5988774    1.5000291    6.0989065    4.5897348 0.0091426827     37.15906    4.2658123    45.121031 
 2835000    1.0013978    23.927418     4.598178    1.5020929    6.1002709    4.5886922 0.0094857478    23.545461    10.778897    47.084145 
 2838000    1.0017604     23.96635    4.5979604    1.5026369    6.1005972    4.5889243 0.0090360322    21.840338    26.568824    66.404854 
 2841000    1.0015878    23.979912    4.5951557    1.5023779    6.0975337    4.5861815 0.0089742145    2.7399355    9.0962939    16.236246 
 2844000    1.0025102    23.949056    4.5952061    1.5037616    6.0989676    4.5859956 0.0092104754   0.92669411    8.8898873    13.465811 
 2847000    1.0007169    23.919875    4.5952173    1.5010716    6.0962889    4.5855028 0.0097145022    29.456728    6.1168627    32.016261 
 2850000    1.0010603    23.913806     4.595247    1.5015867    6.0968337    4.5859445 0.0093025293    15.396436     15.16534    41.922855 
 2853000    1.0032759    23.963123    4.5949451    1.5049101    6.0998551    4.5853963 0.0095488128    31.394899    18.180987    68.005296 
 2856000    1.0005181    23.924216    4.5975321    1.5007734    6.0983055    4.5888507 0.0086813726     33.29638    7.3855155    55.805042 
 2859000   0.99850611    23.953724    4.5958092    1.4977554    6.0935647    4.5869733 0.0088359697     8.051696    18.963419    37.057752 
 2862000    1.0016116    23.921268    4.5969231    1.5024136    6.0993367     4.587666 0.0092571208    20.820252    6.5885527    19.522212 
 2865000   0.99881177    23.940608    4.5975657    1.4982139    6.0957796    4.5883621 0.0092036013   0.25168054    16.373226    22.114592 
 2868000   0.99961968    23.960708    4.5944467    1.4994258    6.0938725    4.5853811 0.0090656095    18.921659    20.055869    53.467089 
 2871000    1.0016309    23.892468     4.600554    1.5024426    6.1029966    4.5912569  0.009297072    12.716855    22.104468    47.765852 
 2874000    1.0011623    23.919891    4.5987789    1.5017397    6.1005186    4.5899661 0.0088127069    8.2015469    16.735629    34.207358 
 2877000    1.0008196    23.914076    4.5963531    1.5012256    6.0975787    4.5873616 0.0089914834    15.717002    7.2208056    31.464741 
 2880000   0.99942231    23.972197    4.5981243    1.4991297     6.097254    4.5887171 0.0094072555    13.979239    13.491605    37.682894 
 2883000    1.0007826    23.846214    4.5960095    1.5011701    6.0971797    4.5869925  0.009017011    28.878642    24.741287    73.552679 
 2886000    1.0016715    23.992057    4.5960075    1.5025036     6.098511    4.5873031 0.0087043447    4.5377697    20.239677    21.538957 
 2889000     1.001945     23.93234    4.5978304    1.5029137    6.1007441    4.5886348 0.0091955223    10.773861    23.594599    47.144641 
 2892000    1.0023877    23.981237    4.5953925    1.5035778    6.0989703    4.5861444 0.0092480475    14.609964    24.190666    53.224432 
 2895000    0.9981942    24.020202    4.5990079    1.4972876    6.0962955    4.5896618 0.0093460972     21.97233    19.541155    56.945767 
 2898000   0.99868963    23.925162    4.5951279    1.4980307    6.0931586    4.5862934 0.0088344808    3.4049242    23.096351    36.352898 
 2901000    1.0005494    23.911772    4.5945096    1.5008204      6.09533     4.585884 0.0086256107    16.192133    16.845602     45.31923 
 2904000    1.0004699    23.932307    4.5964431     1.500701    6.0971441    4.5866585 0.0097845722    10.298898    6.0161051    22.379966 
 2907000    1.0004868    23.959021    4.5978379    1.5007264    6.0985643    4.5885646 0.0092732103    22.030606    4.9509026    23.428937 
 2910000     1.001345    23.955669    4.5965288    1.5020138    6.0985426    4.5868929 0.0096359212    27.519467     3.063953    33.546642 
 2913000   0.99890596    23.966652     4.596873    1.4983552    6.0952282    4.5875624 0.0093105721    13.843055    13.675433    37.748249 
 2916000    1.0014563    23.933872    4.5943064    1.5021806     6.096487    4.5851114 0.0091949459     22.66614    9.7972009    44.531309 
 2919000    1.0018021    23.944396    4.5994422    1.5026994    6.1021416     4.589909 0.0095332639    8.7232077    9.3250978    24.757608 
 2922000    1.0014283    23.987485    4.5984404    1.5021387    6.1005791    4.5888501 0.0095903336    20.911396    15.690676    50.208579 
 2925000    1.0008391    23.971992    4.5984581     1.501255    6.0997131    4.5892301 0.0092280501    14.062412    5.6136642    11.589497 
 2928000    1.0015958    23.998072    4.5961196      1.50239    6.0985096    4.5870336 0.0090860125    18.214234       18.095     49.80688 
 2931000    1.0016935     24.00756    4.5992096    1.5025366    6.1017462    4.5893108 0.0098988033    46.831801    15.904339    86.057763 
 2934000    1.0005239    23.972601    4.5957339    1.5007821    6.0965161    4.5867432 0.0089907575     23.35603    17.890705    56.579857 
 2937000   0.99943701    23.980091    4.5968477    1.4991518    6.0959994    4.5874018 0.0094458594    16.194079    2.2748704    19.093556 
 2940000     1.001628    23.956677    4.5965939    1.5024382    6.0990321    4.5870061  0.009587799    12.449384     23.22724    48.939104 
 2943000    1.0016751    23.945291    4.5973987    1.5025089    6.0999075    4.5880958 0.0093028321    20.294043    13.645419    46.556167 
 2946000      1.00006    23.979956    4.5975015    1.5000863    6.0975878    4.5880744 0.0094270908    33.077214   0.86490642    46.559814 
 2949000    0.9987839    23.970748    4.5980164    1.4981721    6.0961885     4.588822 0.0091943832    17.438902    25.932583    59.494463 
 2952000    1.0019763    23.967753     4.597923    1.5029607    6.1008837    4.5884726 0.0094503918   0.43111805    34.919572    48.492006 
 2955000    1.0007913      23.9144    4.5966602    1.5011832    6.0978434     4.587532 0.0091282577    6.5280914    18.979925    34.990403 
 2958000    1.0011135    23.878956    4.5988002    1.5016665    6.1004667    4.5902243 0.0085759294    34.001621    9.8804482    60.194852 
 2961000    1.0011264    23.925952    4.5952495    1.5016858    6.0969353    4.5859381 0.0093113966    29.900046    7.4430511    30.805191 
 2964000   0.99954703    23.966539    4.5979061    1.4993168    6.0972229    4.5883912 0.0095148968    5.1209668    44.076389    53.436767 
 2967000   0.99967782    23.940534     4.598052     1.499513    6.0975649    4.5884729 0.0095790969    14.699211    23.045382    51.775822 
 2970000    1.0005688    23.965453    4.5980642    1.5008494    6.0989136    4.5890163 0.0090479254    6.6123906    15.085912    29.764461 
 2973000    1.0005505    23.997054    4.5969638     1.500822    6.0977858    4.5873915 0.0095723307    15.551038    5.6124566    29.030842 
 2976000   0.99940289    24.012452     4.598137    1.4991006    6.0972376    4.5890745  0.009062512    25.820851    3.3951525    40.076802 
 2979000    1.0009339    23.873742    4.5970735    1.5013972    6.0984707    4.5883473 0.0087262164    29.283993    11.056188    55.336298 
 2982000   0.99997082    23.983428    4.5988268    1.4999525    6.0987793    4.5892997 0.0095271254    1.9996361    20.645614     25.57746 
 2985000    1.0012152    23.979842    4.5949825     1.501819    6.0968015    4.5858691 0.0091134212    18.042753     8.343045    36.194493 
 2988000   0.99858354    24.004787    4.5955011    1.4978716    6.0933727    4.5861694  0.009331691    26.833837    27.752342    74.878123 
 2991000    1.0012536    23.967098    4.5941902    1.5018767    6.0960669    4.5855346 0.0086555667    16.927359    17.016447    46.562125 
 2994000   0.99814012    23.974251     4.597786    1.4972064    6.0949924    4.5883866 0.0093994202    5.3950688     24.26569    40.686891 
 2997000   0.99845656    23.966172    4.5950848    1.4976811    6.0927659    4.5855694 0.0095154067    22.288048    25.501689    65.555162 
 3000000   0.99999688    23.932014    4.5976704    1.4999916     6.097662    4.5882189 0.0094515708     24.95682    21.716971    64.024374 
Loop time of 141438 on 24 procs for 3000000 steps with 400312 atoms

Performance: 3665.222 tau/day, 21.211 timesteps/s
98.4% CPU use with 24 MPI tasks x no OpenMP threads

MPI task timing breakdown:
Section |  min time  |  avg time  |  max time  |%varavg| %total
---------------------------------------------------------------
Pair    | 90347      | 94454      | 98505      |1075.4 | 66.78
Bond    | 2975.1     | 3545.4     | 3931.4     | 451.3 |  2.51
Neigh   | 3547.9     | 3551.3     | 3553.6     |   2.8 |  2.51
Comm    | 6254.9     | 10555      | 15254      |3445.6 |  7.46
Output  | 0.18185    | 0.1835     | 0.21304    |   1.4 |  0.00
Modify  | 27191      | 27348      | 27536      |  66.2 | 19.34
Other   |            | 1984       |            |       |  1.40

Nlocal:    16679.7 ave 16845 max 16511 min
Histogram: 4 4 3 1 0 0 1 2 5 4
Nghost:    23802.6 ave 24019 max 23605 min
Histogram: 3 0 7 1 1 0 5 5 0 2
Neighs:    2.82341e+06 ave 2.89687e+06 max 2.74513e+06 min
Histogram: 6 5 1 0 0 0 0 0 5 7

Total # of neighbors = 67761771
Ave neighs/atom = 169.272
Ave special neighs/atom = 0.00701453
Neighbor list builds = 30320
Dangerous builds = 0

clear
next T
next concentracao
next index_simu
jump input_lammps.inp
Total wall time: 51:54:21
