ITEM: TIMESTEP
                6000
ITEM: NUMBER OF ATOMS
        12
ITEM: BOX BOUNDS pp pp pp
  -22.99375     22.99375
  -22.99375     22.99375
  -31.54150     31.54150
ITEM: ATOMS id mol type x y z
           1           1           1   12.368000000000000        18.999400000000001       -20.979399999999998     
           2           2           1   1.5760900000000000       -16.533500000000000       -21.122900000000001     
           3           3           1  -21.187799999999999        22.334399999999999       -20.853400000000001     
           4           4           1  -2.9403299999999999       -8.6098499999999998        11.400600000000001     
           5           5           1  0.48828300000000002        23.431100000000001        11.705700000000000     
           6           6           1  -20.337000000000000        20.689000000000000        42.212299999999999     
           7           7           1   10.414600000000000       -18.854399999999998       -20.466799999999999     
           8           8           1  -23.745300000000000       -34.379100000000001       -20.577900000000000     
           9           9           1  -34.180000000000000        19.433800000000002       -20.969400000000000     
          10          10           1  -17.575099999999999       -22.761399999999998        11.672700000000001     
          11          11           1  -5.2099200000000003      -0.90033399999999997       -20.513200000000001     
          12          12           1   39.496699999999997        3.0234700000000001        11.769700000000000     
ITEM: TIMESTEP
               12000
ITEM: NUMBER OF ATOMS
        12
ITEM: BOX BOUNDS pp pp pp
  -22.99375     22.99375
  -22.99375     22.99375
  -31.54150     31.54150
ITEM: ATOMS id mol type x y z
           1           1           1   12.671700000000000        19.817900000000002       -20.504999999999999     
           2           2           1   2.0775000000000001       -17.069199999999999       -20.641999999999999     
           3           3           1  -21.237200000000001        21.846900000000002       -20.836400000000001     
           4           4           1  -3.6769099999999999       -8.0252700000000008        11.674300000000001     
           5           5           1  0.65443799999999996        23.105300000000000        11.588200000000001     
           6           6           1  -20.024899999999999        20.164000000000001        42.292099999999998     
           7           7           1   10.538100000000000       -18.926700000000000       -20.588699999999999     
           8           8           1  -24.046600000000002       -34.552399999999999       -20.832400000000000     
           9           9           1  -33.814399999999999        20.254000000000001       -20.486799999999999     
          10          10           1  -17.728899999999999       -22.624400000000001        11.788900000000000     
          11          11           1  -6.1930800000000001       -1.3389200000000001       -20.365100000000002     
          12          12           1   40.400399999999998        2.8973800000000001        11.650600000000001     
ITEM: TIMESTEP
               18000
ITEM: NUMBER OF ATOMS
        12
ITEM: BOX BOUNDS pp pp pp
  -22.99375     22.99375
  -22.99375     22.99375
  -31.54150     31.54150
ITEM: ATOMS id mol type x y z
           1           1           1   12.864800000000001        19.628900000000002       -20.678300000000000     
           2           2           1   2.1181199999999998       -17.442799999999998       -20.610399999999998     
           3           3           1  -20.700299999999999        21.592099999999999       -20.640699999999999     
           4           4           1  -4.4147999999999996       -8.6587899999999998        11.885000000000000     
           5           5           1  0.33315400000000001        23.407399999999999        11.509600000000001     
           6           6           1  -19.850400000000000        20.105599999999999        42.337299999999999     
           7           7           1   10.230900000000000       -18.464300000000001       -20.533899999999999     
           8           8           1  -24.696400000000001       -34.746200000000002       -20.515699999999999     
           9           9           1  -33.622100000000003        20.091699999999999       -20.706900000000001     
          10          10           1  -17.946300000000001       -21.702900000000000        11.267099999999999     
          11          11           1  -6.0393699999999999       -1.0942400000000001       -20.403700000000001     
          12          12           1   40.718699999999998        2.6960700000000002        11.688700000000001     
ITEM: TIMESTEP
               24000
ITEM: NUMBER OF ATOMS
        12
ITEM: BOX BOUNDS pp pp pp
  -22.99375     22.99375
  -22.99375     22.99375
  -31.54150     31.54150
ITEM: ATOMS id mol type x y z
           1           1           1   12.443700000000000        20.751400000000000       -20.590800000000002     
           2           2           1   2.3569599999999999       -17.550999999999998       -20.773900000000001     
           3           3           1  -19.837700000000002        21.555599999999998       -20.448699999999999     
           4           4           1  -4.3653199999999996       -8.5968800000000005        11.875000000000000     
           5           5           1 -0.88093299999999997        23.857199999999999        11.839200000000000     
           6           6           1  -19.111699999999999        19.793500000000002        42.553500000000000     
           7           7           1   10.189299999999999       -18.323799999999999       -20.486799999999999     
           8           8           1  -24.498400000000000       -34.808500000000002       -20.270199999999999     
           9           9           1  -34.005499999999998        21.255199999999999       -20.614500000000000     
          10          10           1  -17.678000000000001       -20.199700000000000        11.505200000000000     
          11          11           1  -6.6862000000000004      -0.71327099999999999       -20.450399999999998     
          12          12           1   41.125200000000000        3.5302699999999998        11.667400000000001     
ITEM: TIMESTEP
               30000
ITEM: NUMBER OF ATOMS
        12
ITEM: BOX BOUNDS pp pp pp
  -22.99375     22.99375
  -22.99375     22.99375
  -31.54150     31.54150
ITEM: ATOMS id mol type x y z
           1           1           1   12.652600000000000        21.017700000000001       -20.279499999999999     
           2           2           1   2.7759800000000001       -18.385700000000000       -20.562000000000001     
           3           3           1  -19.839800000000000        21.513200000000001       -20.637799999999999     
           4           4           1  -4.7921500000000004       -8.6900300000000001        11.609700000000000     
           5           5           1  -1.1180200000000000        23.375399999999999        11.940200000000001     
           6           6           1  -18.970199999999998        19.884799999999998        42.486699999999999     
           7           7           1   9.5262499999999992       -18.037800000000001       -20.535100000000000     
           8           8           1  -23.573899999999998       -34.908299999999997       -20.329300000000000     
           9           9           1  -33.858699999999999        21.421199999999999       -20.345600000000001     
          10          10           1  -18.091000000000001       -20.777000000000001        11.451300000000000     
          11          11           1  -7.6170499999999999       -1.0007200000000001       -20.579899999999999     
          12          12           1   40.951300000000003        3.5072999999999999        11.467000000000001     
ITEM: TIMESTEP
               36000
ITEM: NUMBER OF ATOMS
        12
ITEM: BOX BOUNDS pp pp pp
  -22.99375     22.99375
  -22.99375     22.99375
  -31.54150     31.54150
ITEM: ATOMS id mol type x y z
           1           1           1   13.917400000000001        21.360600000000002       -20.381300000000000     
           2           2           1   3.2531300000000001       -19.275800000000000       -20.245799999999999     
           3           3           1  -19.099200000000000        20.949600000000000       -20.639800000000001     
           4           4           1  -5.2655200000000004       -9.2292199999999998        11.336399999999999     
           5           5           1 -0.67533399999999999        23.642800000000001        11.645300000000001     
           6           6           1  -18.700600000000001        19.251600000000000        42.415999999999997     
           7           7           1   8.7424499999999998       -17.972899999999999       -20.525900000000000     
           8           8           1  -23.659500000000001       -35.100800000000000       -20.618500000000001     
           9           9           1  -32.595100000000002        21.785399999999999       -20.406600000000001     
          10          10           1  -17.477699999999999       -21.100700000000000        11.039800000000000     
          11          11           1  -7.9724899999999996       -1.2278600000000000       -20.782200000000000     
          12          12           1   40.509799999999998        4.2031400000000003        11.603600000000000     
ITEM: TIMESTEP
               42000
ITEM: NUMBER OF ATOMS
        12
ITEM: BOX BOUNDS pp pp pp
  -22.99375     22.99375
  -22.99375     22.99375
  -31.54150     31.54150
ITEM: ATOMS id mol type x y z
           1           1           1   13.932600000000001        22.104800000000001       -20.471399999999999     
           2           2           1   3.4324499999999998       -20.364599999999999       -20.536500000000000     
           3           3           1  -19.284700000000001        20.863199999999999       -20.517399999999999     
           4           4           1  -5.4201800000000002       -10.126200000000001        11.021400000000000     
           5           5           1 -0.68843600000000005        23.501300000000001        11.480700000000001     
           6           6           1  -19.160399999999999        19.416300000000000        42.560000000000002     
           7           7           1   8.6663800000000002       -17.561100000000000       -20.433700000000002     
           8           8           1  -23.587399999999999       -35.459200000000003       -20.625699999999998     
           9           9           1  -32.564799999999998        22.513999999999999       -20.506399999999999     
          10          10           1  -17.220199999999998       -20.752800000000001        11.370699999999999     
          11          11           1  -8.2189499999999995       -1.5881000000000001       -20.992799999999999     
          12          12           1   40.207900000000002        5.2293200000000004        11.691400000000000     
ITEM: TIMESTEP
               48000
ITEM: NUMBER OF ATOMS
        12
ITEM: BOX BOUNDS pp pp pp
  -22.99375     22.99375
  -22.99375     22.99375
  -31.54150     31.54150
ITEM: ATOMS id mol type x y z
           1           1           1   13.851100000000001        22.560300000000002       -20.730799999999999     
           2           2           1   3.8503300000000000       -20.864100000000001       -20.497100000000000     
           3           3           1  -19.824700000000000        20.670900000000000       -20.379500000000000     
           4           4           1  -4.8383700000000003       -11.245600000000000        11.299600000000000     
           5           5           1  -1.0543499999999999        23.828700000000001        11.515300000000000     
           6           6           1  -19.544799999999999        19.171600000000002        42.664099999999998     
           7           7           1   8.3403200000000002       -18.433000000000000       -20.276599999999998     
           8           8           1  -24.278099999999998       -35.102899999999998       -20.420800000000000     
           9           9           1  -32.663300000000000        22.979700000000001       -20.717700000000001     
          10          10           1  -17.480799999999999       -20.785100000000000        11.649800000000001     
          11          11           1  -8.2269400000000008       -1.3215699999999999       -20.708700000000000     
          12          12           1   39.373300000000000        4.6457199999999998        11.903300000000000     
ITEM: TIMESTEP
               54000
ITEM: NUMBER OF ATOMS
        12
ITEM: BOX BOUNDS pp pp pp
  -22.99375     22.99375
  -22.99375     22.99375
  -31.54150     31.54150
ITEM: ATOMS id mol type x y z
           1           1           1   14.026899999999999        22.589600000000001       -20.463100000000001     
           2           2           1   2.9322400000000002       -20.424800000000001       -20.494599999999998     
           3           3           1  -19.819600000000001        20.780999999999999       -20.393400000000000     
           4           4           1  -4.8190700000000000       -12.290800000000001        11.440400000000000     
           5           5           1  -1.4798899999999999        24.196700000000000        11.391200000000000     
           6           6           1  -19.445000000000000        19.167000000000002        42.773000000000003     
           7           7           1   8.8915100000000002       -18.741299999999999       -20.426500000000001     
           8           8           1  -25.304300000000001       -34.840400000000002       -20.591400000000000     
           9           9           1  -32.385500000000000        23.111899999999999       -20.432800000000000     
          10          10           1  -17.600100000000001       -21.210300000000000        11.294000000000000     
          11          11           1  -7.9609600000000000       -1.1004200000000000       -20.539300000000001     
          12          12           1   38.737600000000000        4.5867800000000001        11.811800000000000     
ITEM: TIMESTEP
               60000
ITEM: NUMBER OF ATOMS
        12
ITEM: BOX BOUNDS pp pp pp
  -22.99375     22.99375
  -22.99375     22.99375
  -31.54150     31.54150
ITEM: ATOMS id mol type x y z
           1           1           1   14.002800000000001        22.584499999999998       -20.370999999999999     
           2           2           1   2.7127900000000000       -19.308900000000001       -20.469799999999999     
           3           3           1  -19.626300000000001        20.411999999999999       -20.428200000000000     
           4           4           1  -3.7528400000000000       -12.500000000000000        11.702000000000000     
           5           5           1  -1.4471700000000001        24.843200000000000        11.132500000000000     
           6           6           1  -19.334000000000000        18.560900000000000        42.687300000000000     
           7           7           1   9.5681799999999999       -18.779800000000002       -20.646799999999999     
           8           8           1  -24.852100000000000       -34.965100000000000       -20.570799999999998     
           9           9           1  -32.248100000000001        23.235099999999999       -20.444900000000001     
          10          10           1  -17.803400000000000       -21.034600000000001        11.508500000000000     
          11          11           1  -7.8185300000000000       -1.0934999999999999       -20.575500000000002     
          12          12           1   38.651499999999999        4.3393800000000002        11.658600000000000     
ITEM: TIMESTEP
               66000
ITEM: NUMBER OF ATOMS
        12
ITEM: BOX BOUNDS pp pp pp
  -22.99375     22.99375
  -22.99375     22.99375
  -31.54150     31.54150
ITEM: ATOMS id mol type x y z
           1           1           1   14.418100000000001        22.533400000000000       -20.475500000000000     
           2           2           1   3.0840600000000000       -18.576400000000000       -20.645600000000002     
           3           3           1  -20.029699999999998        19.688500000000001       -20.600800000000000     
           4           4           1  -2.0573500000000000       -11.531100000000000        11.673800000000000     
           5           5           1 -0.82978099999999999        24.582999999999998        11.388199999999999     
           6           6           1  -19.560900000000000        17.789899999999999        42.541499999999999     
           7           7           1   10.074000000000000       -17.703600000000002       -20.609200000000001     
           8           8           1  -24.329799999999999       -34.712499999999999       -20.321700000000000     
           9           9           1  -31.846499999999999        23.229099999999999       -20.461600000000001     
          10          10           1  -17.145800000000001       -21.861300000000000        11.947900000000001     
          11          11           1  -8.1785399999999999       -1.0409200000000001       -20.723199999999999     
          12          12           1   37.573900000000002        5.0804299999999998        11.613700000000000     
ITEM: TIMESTEP
               72000
ITEM: NUMBER OF ATOMS
        12
ITEM: BOX BOUNDS pp pp pp
  -22.99375     22.99375
  -22.99375     22.99375
  -31.54150     31.54150
ITEM: ATOMS id mol type x y z
           1           1           1   14.203400000000000        22.680499999999999       -20.484600000000000     
           2           2           1   3.5661700000000001       -18.185300000000002       -20.595099999999999     
           3           3           1  -20.095900000000000        19.577500000000001       -20.455700000000000     
           4           4           1  -1.2712900000000000       -12.284200000000000        11.733599999999999     
           5           5           1  -2.0419900000000002        24.106700000000000        11.218700000000000     
           6           6           1  -19.876799999999999        17.727900000000002        42.625999999999998     
           7           7           1   10.021300000000000       -16.223800000000001       -20.758700000000001     
           8           8           1  -24.042200000000001       -34.371699999999997       -20.524799999999999     
           9           9           1  -31.928200000000000        23.377600000000001       -20.527100000000001     
          10          10           1  -16.143500000000000       -21.046600000000002        11.764500000000000     
          11          11           1  -8.4296699999999998      -0.64221200000000001       -20.581700000000001     
          12          12           1   37.255899999999997        4.6030300000000004        11.413500000000001     
ITEM: TIMESTEP
               78000
ITEM: NUMBER OF ATOMS
        12
ITEM: BOX BOUNDS pp pp pp
  -22.99375     22.99375
  -22.99375     22.99375
  -31.54150     31.54150
ITEM: ATOMS id mol type x y z
           1           1           1   14.565300000000001        22.636299999999999       -20.558100000000000     
           2           2           1   4.0949000000000000       -17.776900000000001       -20.738600000000002     
           3           3           1  -20.743800000000000        18.727799999999998       -20.449600000000000     
           4           4           1  -1.0322100000000001       -12.541200000000000        11.702500000000001     
           5           5           1  -2.7319599999999999        23.130299999999998        11.631600000000001     
           6           6           1  -20.103500000000000        17.311599999999999        42.753900000000002     
           7           7           1   9.8921299999999999       -16.576100000000000       -20.767800000000001     
           8           8           1  -23.364500000000000       -33.982300000000002       -20.219999999999999     
           9           9           1  -31.407399999999999        23.286899999999999       -20.624600000000001     
          10          10           1  -16.229700000000001       -22.124400000000001        11.670000000000000     
          11          11           1  -8.2715800000000002       0.43436300000000000       -20.912700000000001     
          12          12           1   36.793100000000003        4.6362500000000004        11.380200000000000     
ITEM: TIMESTEP
               84000
ITEM: NUMBER OF ATOMS
        12
ITEM: BOX BOUNDS pp pp pp
  -22.99375     22.99375
  -22.99375     22.99375
  -31.54150     31.54150
ITEM: ATOMS id mol type x y z
           1           1           1   14.639400000000000        22.315600000000000       -20.704000000000001     
           2           2           1   4.3047700000000004       -17.140899999999998       -20.874600000000001     
           3           3           1  -20.125900000000001        18.915400000000002       -20.345099999999999     
           4           4           1  -1.3844099999999999       -12.127700000000001        11.302600000000000     
           5           5           1  -3.2282299999999999        22.401399999999999        11.722400000000000     
           6           6           1  -19.632500000000000        17.489300000000000        42.783600000000000     
           7           7           1   10.987100000000000       -16.994900000000001       -20.556000000000001     
           8           8           1  -23.982900000000001       -34.020499999999998       -20.629700000000000     
           9           9           1  -31.109500000000001        22.901399999999999       -20.577500000000001     
          10          10           1  -17.133199999999999       -21.935900000000000        11.744000000000000     
          11          11           1  -7.6617699999999997        1.7931999999999999       -20.647099999999998     
          12          12           1   36.698599999999999        4.7813299999999996        11.489200000000000     
ITEM: TIMESTEP
               90000
ITEM: NUMBER OF ATOMS
        12
ITEM: BOX BOUNDS pp pp pp
  -22.99375     22.99375
  -22.99375     22.99375
  -31.54150     31.54150
ITEM: ATOMS id mol type x y z
           1           1           1   14.300400000000000        21.923400000000001       -20.649200000000000     
           2           2           1   4.0320099999999996       -17.421399999999998       -21.088000000000001     
           3           3           1  -20.219100000000001        19.135400000000001       -20.454100000000000     
           4           4           1  -1.5836399999999999       -11.946899999999999        11.210200000000000     
           5           5           1  -4.5245100000000003        21.387499999999999        11.747700000000000     
           6           6           1  -19.830100000000002        18.274100000000001        42.435099999999998     
           7           7           1   12.157999999999999       -16.345400000000001       -20.379700000000000     
           8           8           1  -24.181999999999999       -34.122199999999999       -20.505400000000002     
           9           9           1  -31.435900000000000        22.539999999999999       -20.619299999999999     
          10          10           1  -18.774100000000001       -21.222100000000001        11.738600000000000     
          11          11           1  -7.1814600000000004        1.9155899999999999       -20.417700000000000     
          12          12           1   37.888900000000000        4.9869500000000002        11.714800000000000     
ITEM: TIMESTEP
               96000
ITEM: NUMBER OF ATOMS
        12
ITEM: BOX BOUNDS pp pp pp
  -22.99375     22.99375
  -22.99375     22.99375
  -31.54150     31.54150
ITEM: ATOMS id mol type x y z
           1           1           1   14.304700000000000        22.579200000000000       -20.317399999999999     
           2           2           1   3.3220800000000001       -17.241000000000000       -20.503599999999999     
           3           3           1  -19.907000000000000        19.508600000000001       -20.644600000000001     
           4           4           1  -2.8193999999999999       -12.036600000000000        11.629400000000000     
           5           5           1  -4.8898900000000003        21.530799999999999        11.512100000000000     
           6           6           1  -19.316400000000002        19.005500000000001        42.332700000000003     
           7           7           1   11.661300000000001       -15.458500000000001       -20.433199999999999     
           8           8           1  -24.751799999999999       -35.107900000000001       -20.840699999999998     
           9           9           1  -31.463400000000000        23.234100000000002       -20.275400000000001     
          10          10           1  -19.531400000000001       -20.578099999999999        11.519299999999999     
          11          11           1  -6.6531399999999996        2.8257400000000001       -20.275800000000000     
          12          12           1   38.055900000000001        4.7184200000000001        11.597799999999999     
ITEM: TIMESTEP
              102000
ITEM: NUMBER OF ATOMS
        12
ITEM: BOX BOUNDS pp pp pp
  -22.99375     22.99375
  -22.99375     22.99375
  -31.54150     31.54150
ITEM: ATOMS id mol type x y z
           1           1           1   13.929800000000000        23.263600000000000       -20.697500000000002     
           2           2           1   2.6705899999999998       -17.473199999999999       -20.211600000000001     
           3           3           1  -19.511299999999999        19.114300000000000       -20.965299999999999     
           4           4           1  -3.7755500000000000       -12.053500000000000        11.872100000000000     
           5           5           1  -4.1389699999999996        21.672200000000000        11.468500000000001     
           6           6           1  -18.957599999999999        18.674099999999999        41.932699999999997     
           7           7           1   11.615800000000000       -15.427500000000000       -20.502300000000002     
           8           8           1  -24.555199999999999       -34.790500000000002       -21.018999999999998     
           9           9           1  -31.909099999999999        23.935400000000001       -20.670200000000001     
          10          10           1  -20.210500000000000       -20.470800000000001        11.465100000000000     
          11          11           1  -6.6442199999999998        2.9083000000000001       -20.740400000000001     
          12          12           1   38.293900000000001        5.5879399999999997        11.801299999999999     
ITEM: TIMESTEP
              108000
ITEM: NUMBER OF ATOMS
        12
ITEM: BOX BOUNDS pp pp pp
  -22.99375     22.99375
  -22.99375     22.99375
  -31.54150     31.54150
ITEM: ATOMS id mol type x y z
           1           1           1   13.975500000000000        23.338799999999999       -21.051100000000002     
           2           2           1   2.8924900000000000       -17.325700000000001       -20.070399999999999     
           3           3           1  -19.071300000000001        18.669599999999999       -20.983400000000000     
           4           4           1  -4.2291999999999996       -12.186600000000000        11.392300000000001     
           5           5           1  -3.6005699999999998        21.266400000000001        11.511699999999999     
           6           6           1  -18.551600000000001        18.743500000000001        42.145099999999999     
           7           7           1   11.671200000000001       -15.094099999999999       -20.663200000000000     
           8           8           1  -24.516600000000000       -33.921700000000001       -20.796399999999998     
           9           9           1  -31.865500000000001        23.999199999999998       -21.025800000000000     
          10          10           1  -21.294300000000000       -19.731500000000000        11.723599999999999     
          11          11           1  -6.6961300000000001        2.8789500000000001       -20.771300000000000     
          12          12           1   37.962699999999998        6.1110100000000003        11.800100000000000     
ITEM: TIMESTEP
              114000
ITEM: NUMBER OF ATOMS
        12
ITEM: BOX BOUNDS pp pp pp
  -22.99375     22.99375
  -22.99375     22.99375
  -31.54150     31.54150
ITEM: ATOMS id mol type x y z
           1           1           1   14.572300000000000        23.179500000000001       -21.102100000000000     
           2           2           1   3.9964100000000000       -17.923500000000001       -20.314399999999999     
           3           3           1  -18.758500000000002        18.916200000000000       -21.019100000000002     
           4           4           1  -4.2507099999999998       -12.943199999999999        11.187200000000001     
           5           5           1  -3.3382200000000002        22.619000000000000        11.696400000000001     
           6           6           1  -18.364300000000000        18.992000000000001        42.080900000000000     
           7           7           1   11.998600000000000       -14.792999999999999       -20.669699999999999     
           8           8           1  -24.582799999999999       -34.071300000000001       -20.826100000000000     
           9           9           1  -31.311000000000000        23.866299999999999       -21.096599999999999     
          10          10           1  -21.552600000000002       -18.313800000000001        11.490700000000000     
          11          11           1  -6.1313100000000000        2.8648699999999998       -20.440400000000000     