LAMMPS (31 Mar 2017)
Reading data file ...
  orthogonal box = (-23.0464 -23.0464 -31.6138) to (23.0464 23.0464 31.6138)
  2 by 3 by 4 MPI processor grid
  reading atoms ...
  403744 atoms
  scanning bonds ...
  2 = max bonds/atom
  scanning angles ...
  3 = max angles/atom
  scanning impropers ...
  1 = max impropers/atom
  reading bonds ...
  4176 bonds
  reading angles ...
  5904 angles
  reading impropers ...
  1296 impropers
Finding 1-2 1-3 1-4 neighbors ...
  special bond factors lj:   0          0          0         
  special bond factors coul: 0          0          0         
  3 = max # of 1-2 neighbors
  6 = max # of 1-3 neighbors
  15 = max # of 1-4 neighbors
  15 = max # of special neighbors
Neighbor list info ...
  update every 1 steps, delay 3 steps, check yes
  max neighbors/atom: 2000, page size: 100000
  master list distance cutoff = 3
  ghost atom cutoff = 3
  binsize = 1.5, bins = 31 31 43
  1 neighbor lists, perpetual/occasional/extra = 1 0 0
  (1) pair dpd, perpetual
      attributes: half, newton on
      pair build: half/bin/newton
      stencil: half/bin/3d/newton
      bin: standard
Setting up Verlet run ...
  Unit style    : lj
  Current step  : 0
  Time step     : 0.002
Per MPI rank memory allocation (min/avg/max) = 36.2 | 37.01 | 37.91 Mbytes
Step Temp Press PotEng KinEng TotEng E_pair E_mol 
       0            1    90.753476    19.322388    1.4999963    20.822385    17.561265    1.7611237 
    3000    1.0620939      28.2136    5.2982204    1.5931368    6.8913572    5.1950241   0.10319627 
    6000    1.0360839    26.851103     5.103979     1.554122     6.658101    4.9992178   0.10476118 
    9000    1.0292363    26.240038    5.0154394    1.5438507    6.5592901    4.9086862   0.10675319 
   12000    1.0250982    25.842249     4.958124    1.5376435    6.4957675     4.850625   0.10749902 
   15000    1.0197683     25.53457    4.9192725    1.5296486    6.4489211    4.8117611   0.10751147 
   18000    1.0177129    25.431259    4.8953218    1.5265655    6.4218873    4.7853789   0.10994288 
   21000    1.0181631    25.172807    4.8771843    1.5272409    6.4044252    4.7673991   0.10978519 
   24000    1.0174749     25.18973    4.8573862    1.5262085    6.3835947     4.748146   0.10924024 
   27000    1.0151552     24.98324    4.8456798     1.522729    6.3684087     4.736603   0.10907682 
   30000    1.0144971    24.964662    4.8327153    1.5217419    6.3544571    4.7235936   0.10912164 
   33000    1.0136533     24.80763    4.8238712    1.5204762    6.3443474    4.7130383   0.11083293 
   36000      1.01149    24.766808    4.8185106    1.5172312    6.3357418    4.7077901   0.11072048 
   39000    1.0125046    24.764172     4.807927    1.5187531    6.3266801    4.6994662    0.1084608 
   42000    1.0117623    24.674776    4.8055306    1.5176397    6.3231703    4.6946311   0.11089953 
   45000    1.0113934     24.69555    4.7962319    1.5170863    6.3133181    4.6870992    0.1091327 
   48000    1.0128315     24.64664    4.7942453    1.5192435    6.3134888    4.6834399    0.1108054 
   51000    1.0129867    24.648345    4.7855739    1.5194763    6.3050502    4.6762547   0.10931926 
   54000        1.013    24.520984    4.7777027    1.5194962    6.2971989    4.6696734   0.10802937 
   57000    1.0104464     24.57621    4.7783832    1.5156658    6.2940491    4.6662566   0.11212664 
   60000    1.0104463    24.499821    4.7728933    1.5156657     6.288559    4.6623168   0.11057647 
   63000    1.0111317    24.449711    4.7654261    1.5166937    6.2821198    4.6550325   0.11039358 
   66000    1.0111905    24.498432    4.7628009    1.5167819    6.2795829    4.6521934   0.11060753 
   69000    1.0088859    24.426233    4.7587875    1.5133252    6.2721127    4.6486515   0.11013608 
   72000    1.0112148    24.413603    4.7539436    1.5168185    6.2707621     4.644508   0.10943559 
   75000    1.0126919    24.347405    4.7536991    1.5190341    6.2727331     4.642845   0.11085407 
   78000    1.0106473    24.365862    4.7500266    1.5159672    6.2659938    4.6401331   0.10989346 
   81000    1.0086689    24.427941    4.7480881    1.5129995    6.2610877    4.6366899   0.11139824 
   84000    1.0082588    24.362872    4.7438945    1.5123845     6.256279    4.6338408   0.11005367 
   87000     1.008944    24.308757    4.7476592    1.5134123    6.2610715     4.635382   0.11227727 
   90000    1.0082987    24.369677    4.7427534    1.5124443    6.2551977    4.6328393   0.10991409 
   93000    1.0066755    24.266466    4.7440856    1.5100095    6.2540951      4.63451   0.10957558 
   96000    1.0059619    24.338766    4.7416259    1.5089392     6.250565    4.6309523   0.11067359 
   99000    1.0073499    24.286138    4.7396689     1.511021      6.25069    4.6296825   0.10998642 
  102000    1.0052239    24.181075    4.7414117    1.5078321    6.2492439    4.6306217   0.11079009 
  105000    1.0056817    24.279039    4.7351325    1.5085188    6.2436514    4.6272123   0.10792028 
  108000    1.0071766    24.302411    4.7332473    1.5107612    6.2440085     4.624459   0.10878828 
  111000     1.007033    24.265374    4.7336001    1.5105458    6.2441459      4.62471   0.10889006 
  114000    1.0093705    24.237778    4.7306752    1.5140521    6.2447272    4.6215772     0.109098 
  117000    1.0058487    24.244307    4.7320776    1.5087693    6.2408469     4.622906   0.10917159 
  120000    1.0065788    24.192101    4.7277641    1.5098644    6.2376285    4.6180929   0.10967121 
  123000     1.004779    24.280559    4.7288102    1.5071647    6.2359749    4.6163267   0.11248354 
  126000    1.0050575    24.256553    4.7277754    1.5075825    6.2353579    4.6159297   0.11184564 
  129000    1.0041337     24.23796    4.7264276    1.5061968    6.2326244    4.6179801   0.10844752 
  132000     1.003454    24.149244    4.7254935    1.5051772    6.2306707    4.6166368   0.10885668 
  135000    1.0025105    24.223825    4.7258378    1.5037621    6.2295999    4.6154796   0.11035821 
  138000    1.0039588    24.226475    4.7244591    1.5059345    6.2303936    4.6150003   0.10945881 
  141000     1.000706    24.277252    4.7251352    1.5010552    6.2261904    4.6152553   0.10987986 
  144000    1.0037882    24.190761    4.7267589    1.5056785    6.2324374    4.6168532   0.10990568 
  147000    1.0026398    24.179384    4.7283959    1.5039559    6.2323519    4.6165815   0.11181445 
  150000    1.0011828    24.156591    4.7276226    1.5017704     6.229393    4.6171826   0.11044003 
  153000    1.0027285    24.191547    4.7236861     1.504089    6.2277751    4.6154084   0.10827772 
  156000    1.0018284    24.228302    4.7285892    1.5027388     6.231328    4.6165855   0.11200368 
  159000    1.0020819    24.206367    4.7219812    1.5031191    6.2251002    4.6129504   0.10903075 
  162000    1.0026493    24.162867    4.7258095    1.5039703    6.2297798    4.6147946    0.1110149 
  165000    1.0027122    24.209669    4.7265152    1.5040645    6.2305797    4.6143611   0.11215405 
  168000    1.0052764    24.128964    4.7237578    1.5079108    6.2316687    4.6135589   0.11019897 
  171000    1.0007793    24.196201    4.7212783    1.5011653    6.2224436    4.6113035   0.10997487 
  174000    1.0014277    24.227383    4.7241991    1.5021378    6.2263369     4.613352   0.11084707 
  177000    1.0021373     24.15978    4.7191202    1.5032022    6.2223224     4.611563   0.10755718 
  180000    1.0010864     24.12044    4.7212218     1.501626    6.2228477    4.6105223   0.11069953 
  183000    1.0030901    24.089411    4.7219281    1.5046314    6.2265595    4.6117977   0.11013045 
  186000    1.0019129    24.228614    4.7200673    1.5028656    6.2229329    4.6109594   0.10910792 
  189000    1.0030429    24.183528    4.7198924    1.5045607     6.224453    4.6117145   0.10817785 
  192000    1.0013514    24.185418     4.719945    1.5020233    6.2219684    4.6106111   0.10933394 
  195000     1.001876     24.06747     4.722884    1.5028103    6.2256943    4.6104619   0.11242211 
  198000     1.001931    24.193237     4.718596    1.5028928    6.2214887    4.6093327   0.10926329 
  201000    1.0030782    24.184693    4.7237107    1.5046135    6.2283242    4.6118109   0.11189979 
  204000    1.0038472    24.125772    4.7213322    1.5057671    6.2270993    4.6109645   0.11036769 
  207000    1.0001288    24.180914    4.7205767    1.5001894    6.2207661    4.6107898   0.10978684 
  210000    1.0033963    24.137942    4.7228994    1.5050907    6.2279901    4.6109986    0.1119008 
  213000    1.0024972     24.17486    4.7201475     1.503742    6.2238896    4.6112718   0.10887577 
  216000      1.00182    24.149592    4.7209843    1.5027263    6.2237106    4.6112105   0.10977373 
  219000    1.0028039    24.213212    4.7187546    1.5042021    6.2229566    4.6096537   0.10910086 
  222000   0.99950239    24.159499    4.7223923    1.4992499    6.2216422    4.6118869   0.11050536 
  225000    1.0016489    24.188642    4.7215241    1.5024696    6.2239937    4.6094577   0.11206638 
  228000    1.0001465     24.12672    4.7200719     1.500216     6.220288    4.6120668    0.1080051 
  231000    1.0002229    24.158228    4.7213106    1.5003307    6.2216413     4.611159   0.11015162 
  234000    1.0018777    24.130939    4.7181985    1.5028128    6.2210113    4.6093767   0.10882179 
  237000    1.0009333    24.160847    4.7196346    1.5013962    6.2210309    4.6108391    0.1087955 
  240000   0.99957489    24.140596    4.7197513    1.4993586    6.2191099      4.60985   0.10990132 
  243000    1.0015005    24.185617    4.7218714     1.502247    6.2241185    4.6117286    0.1101428 
  246000    1.0017886    24.061996    4.7224222    1.5026792    6.2251014    4.6118417   0.11058042 
  249000    1.0038641    24.176361     4.718413    1.5057925    6.2242054    4.6090512    0.1093618 
  252000   0.99840795    24.040384    4.7221124    1.4976082    6.2197206    4.6119213   0.11019104 
  255000    1.0008003    24.124489     4.723535    1.5011967    6.2247318    4.6115314    0.1120036 
  258000    1.0003154    24.217131     4.719076    1.5004694    6.2195454    4.6093541   0.10972187 
  261000    1.0027794    24.195559    4.7219421    1.5041654    6.2261075     4.611384   0.11055811 
  264000    1.0012739    24.089191    4.7197198    1.5019071    6.2216269    4.6077248   0.11199509 
  267000    1.0005521    24.124548    4.7179591    1.5008244    6.2187835    4.6088743   0.10908481 
  270000    1.0008966    24.178877     4.720822    1.5013412    6.2221631    4.6099922   0.11082982 
  273000    1.0007493    24.182239    4.7192216    1.5011202    6.2203418    4.6098858   0.10933582 
  276000    1.0013981    24.141056    4.7198618    1.5020934    6.2219552    4.6091692   0.11069266 
  279000    1.0004165    24.209355    4.7178335    1.5006211    6.2184546    4.6068891   0.11094444 
  282000    1.0019499    24.142797    4.7204657    1.5029211    6.2233867    4.6105474   0.10991826 
  285000    1.0009655    24.094217    4.7224099    1.5014446    6.2238545    4.6115102   0.11089966 
  288000     1.002353    24.130341    4.7189461    1.5035257    6.2224718    4.6096452   0.10930084 
  291000    1.0006775    24.137581     4.718876    1.5010125    6.2198884    4.6088981   0.10997784 
  294000    1.0020444    24.121828    4.7212648    1.5030628    6.2243277      4.60991    0.1113548 
  297000    1.0006168    24.147877    4.7198571    1.5009214    6.2207785    4.6099062   0.10995086 
  300000    1.0009402    24.131109    4.7209566    1.5014066    6.2223631    4.6116211   0.10933545 
  303000    1.0027404    24.127176    4.7173821    1.5041068    6.2214889    4.6081777   0.10920439 
  306000    1.0018248    24.119143    4.7220258    1.5027336    6.2247594    4.6100969   0.11192889 
  309000    1.0014286    24.187149    4.7187373    1.5021392    6.2208765    4.6090584   0.10967886 
  312000    1.0006368    24.142451    4.7201072    1.5009515    6.2210587    4.6091597   0.11094746 
  315000    1.0001012    24.134077    4.7189748    1.5001482     6.219123     4.608682   0.11029277 
  318000     1.002663     24.12004    4.7193883    1.5039908    6.2233791    4.6096738   0.10971453 
  321000    1.0009461     24.08196    4.7207335    1.5014154    6.2221489    4.6108387   0.10989482 
  324000    1.0009497    24.121316    4.7207335    1.5014209    6.2221544    4.6097303   0.11100325 
  327000    1.0024691    24.135802    4.7178698    1.5036999    6.2215697    4.6084546    0.1094152 
  330000    1.0020869     24.15702     4.722628    1.5031267    6.2257546    4.6108995   0.11172845 
  333000    1.0024853    24.123405    4.7205528    1.5037242     6.224277    4.6093529   0.11119989 
  336000    1.0018159    24.137077      4.72093    1.5027201    6.2236502      4.60933   0.11160002 
  339000    1.0009765    24.162523    4.7182492     1.501461    6.2197102    4.6099386   0.10831066 
  342000    1.0028769    24.214937    4.7192582    1.5043116    6.2235698    4.6088807   0.11037755 
  345000   0.99988564    24.065491    4.7213535    1.4998247    6.2211783    4.6119707   0.10938282 
  348000    1.0008594    24.149447    4.7201037    1.5012854     6.221389    4.6088137      0.11129 
  351000    0.9996809    24.100143    4.7199463    1.4995176     6.219464    4.6101064   0.10983997 
  354000   0.99983581    24.062056    4.7217796      1.49975    6.2215296    4.6108886   0.11089102 
  357000   0.99977872    24.096037    4.7183995    1.4996644    6.2180638    4.6096425   0.10875698 
  360000   0.99980122    24.133562    4.7205678    1.4996981    6.2202659    4.6099504   0.11061743 
  363000    1.0022946    24.161967    4.7187495    1.5034381    6.2221877    4.6084599   0.11028966 
  366000   0.99922887    24.137565    4.7201705    1.4988396    6.2190101     4.610044   0.11012641 
  369000    1.0000254    24.082709    4.7184011    1.5000344    6.2184355     4.608809   0.10959208 
  372000     1.000832    24.176307    4.7190538    1.5012443    6.2202981    4.6092537   0.10980018 
  375000    1.0005889    24.121015     4.721463    1.5008796    6.2223427    4.6101518   0.11131125 
  378000    1.0016941    24.168765    4.7184881    1.5025375    6.2210256    4.6098509    0.1086372 
  381000    1.0003509    24.101298    4.7188918    1.5005226    6.2194143    4.6090634   0.10982838 
  384000    1.0024383    24.081054    4.7202403    1.5036537     6.223894    4.6094075   0.11083276 
  387000   0.99978481    24.214232    4.7188152    1.4996735    6.2184887    4.6087273   0.11008791 
  390000    1.0000138    24.082673    4.7190983     1.500017    6.2191153    4.6077046   0.11139375 
  393000      1.00076    24.167254    4.7183591    1.5011362    6.2194953    4.6085939   0.10976523 
  396000   0.99999732    24.095802    4.7181043    1.4999923    6.2180966    4.6088458   0.10925854 
  399000    1.0017765    24.099838    4.7178617    1.5026611    6.2205228    4.6093342   0.10852753 
  402000     1.000437    24.135364    4.7168101    1.5006517    6.2174618    4.6078081   0.10900201 
  405000    1.0043038    24.119161    4.7199526     1.506452    6.2264045    4.6090692   0.11088336 
  408000    1.0003614    24.087028    4.7192163    1.5005384    6.2197548    4.6096195   0.10959683 
  411000    1.0020116    24.120039    4.7175979    1.5030137    6.2206116    4.6076315    0.1099664 
  414000    0.9990572    24.124427    4.7181505    1.4985821    6.2167326    4.6073589   0.11079164 
  417000    1.0013316    24.201457    4.7193426    1.5019938    6.2213363    4.6088029   0.11053967 
  420000    1.0019998    24.101413    4.7200904    1.5029959    6.2230864    4.6089227   0.11116772 
  423000     1.001105    24.116848    4.7168102    1.5016537    6.2184639    4.6078478    0.1089624 
  426000    1.0030835    24.098472    4.7164258    1.5046215    6.2210473    4.6072744   0.10915139 
  429000    1.0010543    24.001181    4.7212203    1.5015777    6.2227979    4.6103595   0.11086082 
  432000    1.0011269    24.151289    4.7183277    1.5016867    6.2200144    4.6080644   0.11026328 
  435000   0.99983408    24.085576    4.7204596    1.4997474     6.220207      4.61112   0.10933956 
  438000    1.0001113    24.096876    4.7210074    1.5001632    6.2211707    4.6106058    0.1104016 
  441000     1.001751    24.097419    4.7208992    1.5026228    6.2235221    4.6105061   0.11039317 
  444000   0.99982595     24.11254    4.7227698    1.4997352     6.222505     4.611037   0.11173284 
  447000    1.0016311    24.077274    4.7208998    1.5024429    6.2233427    4.6102211   0.11067862 
  450000    1.0017506    24.100923     4.719713    1.5026221    6.2223351    4.6108568   0.10885626 
  453000   0.99807289    24.110031    4.7181039    1.4971056    6.2152095    4.6096756   0.10842829 
  456000   0.99853922    24.140873    4.7194026    1.4978051    6.2172077     4.608364   0.11103852 
  459000    1.0029034    24.139356    4.7176778    1.5043513    6.2220291    4.6092194   0.10845838 
  462000   0.99851229     24.08692    4.7204725    1.4977647    6.2182372    4.6099921    0.1104804 
  465000    0.9997254    24.221002    4.7228474    1.4995844    6.2224318    4.6095085   0.11333883 
  468000    1.0007362    24.075877    4.7183738    1.5011005    6.2194743    4.6076655   0.11070821 
  471000   0.99830877    24.213337    4.7199074    1.4974595    6.2173669    4.6091549   0.11075252 
  474000    1.0006076    24.057614    4.7195301    1.5009076    6.2204378    4.6101723   0.10935781 
  477000    1.0006876    24.159249    4.7152416    1.5010277    6.2162692    4.6059773   0.10926432 
  480000    1.0034167    24.124052    4.7148262    1.5051213    6.2199475    4.6085852   0.10624098 
  483000   0.99977469    24.197348    4.7193308    1.4996583    6.2189891    4.6101488   0.10918196 
  486000    1.0026774    24.177702    4.7193874    1.5040124    6.2233998     4.609029   0.11035845 
  489000     1.000393    24.140943    4.7176043    1.5005858      6.21819    4.6078523   0.10975198 
  492000    1.0003941    24.111628    4.7197662    1.5005875    6.2203537    4.6102381    0.1095281 
  495000    1.0027671    24.107788    4.7162935     1.504147    6.2204404    4.6067024   0.10959108 
  498000    1.0012616    24.071059    4.7179286    1.5018887    6.2198172    4.6074092   0.11051937 
  501000   0.99821558    24.113949    4.7203566    1.4973197    6.2176762    4.6089162   0.11144037 
  504000    1.0009306    24.106045    4.7200811    1.5013922    6.2214733    4.6090978   0.11098327 
  507000    1.0021905    24.137126    4.7157829     1.503282    6.2190649    4.6064194    0.1093635 
  510000   0.99977865    24.163399    4.7205899    1.4996643    6.2202542    4.6089656   0.11162426 
  513000    1.0010174     24.15854    4.7198231    1.5015225    6.2213456    4.6078349   0.11198819 
  516000   0.99893652    24.045511    4.7184681    1.4984011    6.2168692    4.6081316   0.11033658 
  519000   0.99910441    24.152649    4.7207469    1.4986529    6.2193998    4.6101266   0.11062038 
  522000    1.0024325    24.114049    4.7188017     1.503645    6.2224468    4.6085988    0.1102029 
  525000   0.99781209    24.052351    4.7194559    1.4967144    6.2161703    4.6086076   0.11084827 
  528000    1.0016676    24.165278    4.7202152    1.5024976    6.2227128    4.6093212   0.11089399 
  531000    1.0003558    24.164602     4.720358      1.50053     6.220888    4.6076111   0.11274686 
  534000    1.0002764    24.136947    4.7172812    1.5004109    6.2176921    4.6085293   0.10875184 
  537000    0.9996441    24.110372    4.7186173    1.4994624    6.2180798    4.6087155   0.10990184 
  540000    1.0025047    24.110664    4.7187877    1.5037534    6.2225411    4.6083887   0.11039907 
  543000    1.0003926    24.146621     4.720703    1.5005852    6.2212882    4.6092427   0.11146026 
  546000    1.0024669    24.160678    4.7193275    1.5036967    6.2230242     4.608313   0.11101445 
  549000    1.0012398    24.148233    4.7200186    1.5018561    6.2218746    4.6093492    0.1106694 
  552000   0.99940699    24.087229    4.7196564    1.4991068    6.2187631    4.6082995   0.11135685 
  555000    1.0029088    24.129717    4.7180198    1.5043595    6.2223794    4.6077949    0.1102249 
  558000    1.0006429    24.057047     4.717466    1.5009607    6.2184267    4.6075079   0.10995814 
  561000    1.0034921    24.133301    4.7186712    1.5052344    6.2239055    4.6083623   0.11030883 
  564000    1.0030994     24.14845    4.7175894    1.5046454    6.2222348    4.6070793   0.11051017 
  567000    1.0005009    24.210924    4.7168563    1.5007477     6.217604    4.6077099   0.10914638 
  570000     1.001858    24.092233    4.7190614    1.5027832    6.2218446    4.6073184   0.11174298 
  573000    1.0013202     24.16248    4.7216521    1.5019766    6.2236287    4.6112177    0.1104344 
  576000    1.0009953    24.023946    4.7171513    1.5014893    6.2186405    4.6090118    0.1081395 
  579000    1.0009472     24.21082    4.7211648    1.5014171    6.2225819    4.6090685   0.11209627 
  582000    1.0013817    24.079006    4.7189617    1.5020688    6.2210305    4.6088345    0.1101272 
  585000    1.0006566    24.087931    4.7202128    1.5009812     6.221194    4.6098488   0.11036401 
  588000    1.0018293    24.072413     4.718914    1.5027402    6.2216542    4.6077229   0.11119107 
  591000    1.0026071    24.144352    4.7202505    1.5039069    6.2241574    4.6085366   0.11171394 
  594000    1.0009828    24.043224    4.7157028    1.5014705    6.2171733    4.6077083   0.10799454 
  597000    1.0012979    24.073655    4.7153966    1.5019431    6.2173397    4.6059601   0.10943649 
  600000   0.99860889    24.178459    4.7181386    1.4979096    6.2160483    4.6070459   0.11109269 
  603000    1.0024613     24.14506    4.7182681    1.5036882    6.2219562    4.6078689   0.11039914 
  606000    1.0023009    24.099276    4.7194655    1.5034477    6.2229132     4.609964   0.10950148 
  609000    1.0025817    24.128328    4.7192154    1.5038688    6.2230842    4.6093691   0.10984624 
  612000   0.99703114     24.08888    4.7182875     1.495543    6.2138305    4.6081604   0.11012704 
  615000    1.0013416    24.044964    4.7174667    1.5020087    6.2194754    4.6082013   0.10926547 
  618000    1.0010367    24.173517    4.7193473    1.5015513    6.2208987     4.607982   0.11136528 
  621000   0.99958642    24.082106    4.7197626    1.4993759    6.2191386    4.6082387   0.11152395 
  624000   0.99928171    24.178977    4.7205632    1.4989189     6.219482    4.6101027   0.11046047 
  627000   0.99827549    24.073594    4.7189156    1.4974095    6.2163251    4.6096959   0.10921967 
  630000    1.0013478    24.100781    4.7200091    1.5020179     6.222027    4.6098772   0.11013191 
  633000    1.0001328    24.099505     4.716838    1.5001955    6.2170334    4.6074501   0.10938788 
  636000   0.99946212    24.138444     4.717259    1.4991895    6.2164485    4.6068507    0.1104083 
  639000    1.0005887    24.101062    4.7181412    1.5008793    6.2190205     4.607881   0.11026024 
  642000    1.0017617    24.098524    4.7199229    1.5026388    6.2225617    4.6079437    0.1119792 
  645000   0.99953923    24.149927    4.7184651    1.4993051    6.2177702    4.6074278   0.11103728 
  648000   0.99825925    24.090775    4.7206619    1.4973852     6.218047     4.609533   0.11112882 
  651000    1.0013366     24.19332     4.720334    1.5020011    6.2223351    4.6086314   0.11170261 
  654000   0.99893448    24.156646    4.7177461     1.498398    6.2161441    4.6081035   0.10964256 
  657000    1.0022513    24.123552    4.7186321    1.5033732    6.2220053    4.6097068   0.10892525 
  660000   0.99973297    24.128825    4.7188917    1.4995957    6.2184875    4.6085406   0.11035116 
  663000   0.99958335     24.12266    4.7168901    1.4993713    6.2162614     4.608138   0.10875208 
  666000    1.0002189    24.119809    4.7194566    1.5003246    6.2197813    4.6081259   0.11133072 
  669000    1.0008508    24.171932     4.719505    1.5012725    6.2207775    4.6077767   0.11172822 
  672000   0.99890838    24.071013    4.7184991    1.4983589    6.2168579    4.6081619   0.11033715 
  675000    1.0025898    24.161319    4.7189844     1.503881    6.2228654    4.6076837   0.11130072 
  678000   0.99840612    24.124895    4.7182313    1.4976055    6.2158368    4.6073751   0.11085624 
  681000    1.0005601    24.078779    4.7173335    1.5008364    6.2181699    4.6077298   0.10960376 
  684000    1.0017633    24.261187    4.7187825    1.5026413    6.2214238    4.6078762   0.11090625 
  687000    1.0008102    24.061978    4.7191514    1.5012115    6.2203629    4.6093967    0.1097547 
  690000    1.0008966    24.157259    4.7167195    1.5013411    6.2180607    4.6064092   0.11031031 
  693000   0.99851232    24.119947    4.7195481    1.4977648    6.2173128    4.6085278   0.11102025 
  696000    1.0012113    24.182745    4.7193562    1.5018132    6.2211694    4.6078313   0.11152487 
  699000    1.0029264    24.144608    4.7195215    1.5043859    6.2239074    4.6083951   0.11112645 
  702000   0.99859586     24.16897    4.7210074    1.4978901    6.2188975    4.6110053   0.11000208 
  705000    1.0011903    24.162741    4.7186062    1.5017818     6.220388    4.6067612   0.11184496 
  708000    1.0026544    24.175194     4.718481    1.5039779    6.2224589    4.6083222   0.11015882 
  711000    1.0007861     24.09648    4.7192419    1.5011754    6.2204173    4.6073337   0.11190821 
  714000    1.0008625    24.168619    4.7199624    1.5012901    6.2212525    4.6086905   0.11127187 
  717000    1.0024651    24.154776    4.7184692    1.5036939    6.2221632    4.6084934   0.10997582 
  720000   0.99855546    24.061556    4.7214898    1.4978295    6.2193193    4.6100987   0.11139115 
  723000   0.99913254    24.077123    4.7190455    1.4986951    6.2177406    4.6079964   0.11104909 
  726000   0.99874578    24.117401    4.7171731     1.498115     6.215288     4.606816   0.11035711 
  729000    1.0009126    24.117582    4.7217128    1.5013651    6.2230779    4.6088461   0.11286663 
  732000    1.0015967    24.093719    4.7180287    1.5023913      6.22042    4.6069266   0.11110207 
  735000    1.0017239    24.156054    4.7204519    1.5025821     6.223034    4.6103751   0.11007681 
  738000    0.9996984     24.11793    4.7171218    1.4995439    6.2166656    4.6067689   0.11035289 
  741000    1.0010087    24.034973    4.7174678    1.5015093    6.2189772    4.6074688   0.10999901 
  744000    1.0002544    24.126482    4.7179169    1.5003779    6.2182947    4.6084988   0.10941809 
  747000    1.0000795    24.040957    4.7209056    1.5001155    6.2210211    4.6096664   0.11123916 
  750000    1.0015956    24.158969    4.7192452    1.5023897    6.2216349    4.6076909    0.1115543 
  753000    1.0001187    24.084118    4.7186679    1.5001744    6.2188423     4.607981   0.11068694 
  756000    1.0008097    24.124404    4.7199851    1.5012108    6.2211958    4.6101231   0.10986193 
  759000    0.9992052    24.109921    4.7177181    1.4988041    6.2165222    4.6080979   0.10962016 
  762000    1.0010266    24.167272    4.7155257    1.5015362    6.2170619    4.6078835   0.10764218 
  765000     1.003643    24.186044    4.7172807    1.5054608    6.2227415    4.6065168   0.11076391 
  768000    1.0018135    24.215967      4.71579    1.5027165    6.2185066    4.6067256   0.10906445 
  771000    1.0012871    24.150985    4.7186066     1.501927    6.2205336    4.6091636     0.109443 
  774000    1.0002495    24.085585     4.717986    1.5003705    6.2183566    4.6069026   0.11108343 
  777000   0.99863933    24.134109    4.7208454    1.4979553    6.2188007    4.6095241   0.11132134 
  780000   0.99921688    24.170899    4.7210838    1.4988216    6.2199055    4.6097425   0.11134139 
  783000   0.99992165    24.081873     4.718441    1.4998788    6.2183197    4.6093661   0.10907489 
  786000    1.0008676    24.186176    4.7171575    1.5012976    6.2184551    4.6095295   0.10762807 
  789000    1.0004431    24.135849    4.7206016    1.5006609    6.2212626    4.6111923    0.1094093 
  792000   0.99998219    24.057068    4.7148546    1.4999696    6.2148242    4.6047747   0.11007994 
  795000    1.0019506    24.078882    4.7196066    1.5029221    6.2225287    4.6065727   0.11303391 
  798000    1.0004315    24.055164    4.7175815    1.5006435     6.218225    4.6070385   0.11054298 
  801000    1.0033439    24.097345     4.716753    1.5050121    6.2217651    4.6071289   0.10962412 
  804000   0.99938028    24.105443    4.7190704    1.4990667    6.2181371     4.607842   0.11122837 
  807000    1.0025224    24.165479    4.7192507    1.5037799    6.2230306    4.6101482   0.10910251 
  810000    1.0008008     24.16282    4.7211401    1.5011975    6.2223376    4.6092128   0.11192731 
  813000    1.0009807    24.180877    4.7177918    1.5014673    6.2192591    4.6090103   0.10878157 
  816000    1.0009936    24.188265    4.7191678    1.5014867    6.2206546    4.6085231   0.11064477 
  819000     1.002671    24.062481    4.7175707    1.5040028    6.2215734    4.6072778   0.11029287 
  822000    1.0016265    24.106333    4.7212117     1.502436    6.2236477    4.6107406   0.11047111 
  825000    1.0029283    24.159047    4.7208402    1.5043887    6.2252289    4.6087901   0.11205011 
  828000    1.0034453    24.119365    4.7180413    1.5051642    6.2232055    4.6094633   0.10857807 
  831000   0.99912206    24.170364    4.7164286    1.4986794     6.215108     4.607056   0.10937261 
  834000    1.0006375    24.117225    4.7180975    1.5009525      6.21905    4.6081752   0.10992238 
  837000    1.0008764    24.077496    4.7198352    1.5013108     6.221146     4.608758   0.11107722 
  840000   0.99992012    24.076132    4.7183454    1.4998765    6.2182219    4.6083863   0.10995914 
  843000    1.0047645    24.038571    4.7159588     1.507143    6.2231018    4.6064197   0.10953911 
  846000    1.0012619    24.108469    4.7178502    1.5018891    6.2197392    4.6079012   0.10994901 
  849000    1.0016649     24.09031     4.719205    1.5024936    6.2216986    4.6085329   0.11067214 
  852000    1.0001261    24.094886    4.7211122    1.5001854    6.2212976    4.6105444   0.11056783 
  855000    1.0004619    24.125759    4.7223437    1.5006892    6.2230329    4.6101411   0.11220263 
  858000   0.99931088    24.098004    4.7179487    1.4989626    6.2169113    4.6080839   0.10986484 
  861000    1.0003601    24.078259     4.716844    1.5005365    6.2173805    4.6081256   0.10871835 
  864000   0.99933976    24.103249    4.7196415    1.4990059    6.2186474     4.611273   0.10836853 
  867000    0.9983598    24.108513    4.7172639     1.497536    6.2147999     4.607724   0.10953983 
  870000    1.0001188    24.140367    4.7186634    1.5001745    6.2188379    4.6074419   0.11122149 
  873000    1.0007707    24.055159     4.716025    1.5011523    6.2171774    4.6067311   0.10929396 
  876000    1.0018999    24.106871    4.7188341    1.5028461    6.2216802    4.6086462   0.11018786 
  879000   0.99946335    24.043456    4.7179228    1.4991913    6.2171141    4.6087297   0.10919309 
  882000    1.0013003    24.174208    4.7229218    1.5019467    6.2248685    4.6102087   0.11271313 
  885000    1.0012423    24.185061    4.7186561    1.5018597    6.2205158    4.6092729   0.10938315 
  888000   0.99912741    24.130335    4.7165653    1.4986874    6.2152527    4.6078806   0.10868472 
  891000    1.0023607    24.126435    4.7206614    1.5035373    6.2241987    4.6105329   0.11012846 
  894000   0.99982045    24.027657    4.7172848     1.499727    6.2170118    4.6073535   0.10993129 
  897000     1.000869    24.184501    4.7181644    1.5012998    6.2194641    4.6072444   0.11091992 
  900000    1.0006305    24.133821    4.7175696    1.5009421    6.2185117    4.6077074   0.10986213 
  903000   0.99957171    24.130327    4.7191652    1.4993538     6.218519    4.6069098   0.11225535 
  906000    1.0002803    24.171527    4.7158882    1.5004167    6.2163049    4.6070098    0.1088784 
  909000    1.0003631    24.079974    4.7212354    1.5005409    6.2217763     4.610201   0.11103437 
  912000    1.0011933     24.10695    4.7152623    1.5017862    6.2170484    4.6062324   0.10902989 
  915000    1.0001932    24.105692    4.7193047     1.500286    6.2195907    4.6089584   0.11034629 
  918000   0.99967779    24.118195    4.7172572     1.499513    6.2167701    4.6059239   0.11133331 
  921000    1.0015422    24.103975    4.7188359    1.5023096    6.2211454    4.6081487   0.11068719 
  924000    1.0025358    24.108524    4.7169602       1.5038    6.2207602    4.6084612   0.10849904 
  927000   0.99821426      24.1092    4.7160037    1.4973177    6.2133214    4.6073182   0.10868548 
  930000    1.0015643    24.063107    4.7176069    1.5023427    6.2199496    4.6086152   0.10899168 
  933000   0.99889317    24.026218    4.7194115     1.498336    6.2177475    4.6092721   0.11013941 
  936000     1.001915    24.096507    4.7191373    1.5028688    6.2220061    4.6090796   0.11005771 
  939000    1.0008244    24.137628    4.7182593    1.5012329    6.2194922    4.6085351   0.10972424 
  942000    1.0002197    24.098751     4.715306    1.5003258    6.2156318    4.6069614   0.10834456 
  945000    1.0019551    24.083738    4.7183226     1.502929    6.2212516    4.6080961   0.11022654 
  948000    1.0001113    24.052717     4.719408    1.5001633    6.2195713    4.6089698    0.1104382 
  951000    1.0017526    24.131558    4.7187859    1.5026251     6.221411    4.6099584   0.10882747 
  954000    1.0007101    24.122968    4.7180711    1.5010614    6.2191324    4.6089548   0.10911622 
  957000    1.0004661    24.084802    4.7177847    1.5006954    6.2184801    4.6083256   0.10945904 
  960000   0.99973384    24.122374    4.7161631     1.499597    6.2157602    4.6067479   0.10941528 
  963000   0.99990522     24.11603    4.7187747    1.4998541    6.2186288    4.6065877   0.11218699 
  966000    1.0003134    24.117933    4.7153151    1.5004663    6.2157814    4.6062338   0.10908126 
  969000    1.0012344    24.127713    4.7165328    1.5018478    6.2183806    4.6064941   0.11003873 
  972000   0.99996519     24.02853    4.7176496    1.4999441    6.2175936    4.6083024   0.10934713 
  975000    1.0000159    24.154973    4.7139007    1.5000202    6.2139209    4.6061481   0.10775258 
  978000   0.99841589    24.171752    4.7178813    1.4976201    6.2155014    4.6075474   0.11033383 
  981000    1.0011589    24.166587    4.7186001    1.5017347    6.2203348    4.6082915   0.11030863 
  984000   0.99905494     24.12911    4.7193239    1.4985787    6.2179026    4.6073796   0.11194431 
  987000    1.0009014    24.116491    4.7192254    1.5013483    6.2205737    4.6079513    0.1112741 
  990000    1.0018378    24.125281    4.7188095     1.502753    6.2215625    4.6060086   0.11280089 
  993000    1.0012493     24.13693    4.7158425    1.5018703    6.2177128    4.6062305   0.10961193 
  996000   0.99649356    24.121726    4.7202699    1.4947366    6.2150065    4.6096916    0.1105783 
  999000    1.0021233    24.104781    4.7178191    1.5031812    6.2210003    4.6075553   0.11026376 
 1002000    1.0024714    24.097025    4.7183418    1.5037034    6.2220453    4.6065913   0.11175051 
 1005000    0.9999619    24.130932    4.7170331    1.4999391    6.2169723    4.6065865   0.11044666 
 1008000   0.99760032    24.050983    4.7159165    1.4963968    6.2123133     4.606596   0.10932055 
 1011000    1.0001103    24.156506    4.7169856    1.5001618    6.2171474     4.605771   0.11121461 
 1014000    1.0040165    24.158668    4.7209753     1.506021    6.2269962    4.6091013   0.11187392 
 1017000   0.99966097    24.104684     4.717791    1.4994877    6.2172787    4.6088744   0.10891662 
 1020000    1.0008531    24.178682    4.7194731    1.5012759     6.220749    4.6077504   0.11172267 
 1023000   0.99880592    24.094439    4.7179828    1.4982052     6.216188    4.6089024   0.10908042 
 1026000    1.0023242    24.164654     4.720996    1.5034826    6.2244786    4.6090992   0.11189677 
 1029000   0.99918237    24.130819    4.7189451    1.4987698     6.217715    4.6089969   0.10994826 
 1032000    1.0018989    24.084162    4.7159763    1.5028447    6.2188209    4.6072965   0.10867975 
 1035000    1.0014284    24.078053    4.7187685    1.5021389    6.2209074     4.608699   0.11006954 
 1038000     1.002009    24.144132    4.7201737    1.5030098    6.2231835    4.6089296   0.11124403 
 1041000    1.0010667    24.156496    4.7189692    1.5015964    6.2205656     4.608157   0.11081226 
 1044000    1.0001597     24.09214    4.7160319    1.5002358    6.2162677     4.605482   0.11054987 
 1047000    1.0025155    24.110684    4.7170192    1.5037696    6.2207888    4.6072781    0.1097411 
 1050000    0.9994495    24.120632    4.7214489    1.4991705    6.2206195    4.6116398    0.1098091 
 1053000    1.0030287     24.20643    4.7198846    1.5045393    6.2244239    4.6080503    0.1118344 
 1056000    1.0015571     24.02523    4.7201335     1.502332    6.2224655    4.6087725   0.11136109 
 1059000    1.0011077    24.147286    4.7191031    1.5016578    6.2207609    4.6075002   0.11160297 
 1062000    1.0024151    24.146352    4.7215596     1.503619    6.2251786    4.6091431   0.11241647 
 1065000    1.0009767    24.139522    4.7207019    1.5014613    6.2221632    4.6081679   0.11253401 
 1068000    1.0003625    24.148899    4.7154803      1.50054    6.2160203    4.6060686   0.10941173 
 1071000    1.0004567    24.124604    4.7168353    1.5006813    6.2175166    4.6065427   0.11029259 
 1074000    1.0014097    24.123789    4.7198628    1.5021109    6.2219737    4.6084547    0.1114081 
 1077000    0.9992913     24.09898    4.7158419    1.4989332    6.2147751    4.6065026   0.10933933 
 1080000    1.0028097    24.098935     4.719345    1.5042109    6.2235559    4.6082635   0.11108149 
 1083000   0.99995522    24.130322    4.7164763    1.4999291    6.2164054    4.6064405   0.11003579 
 1086000    1.0013034    24.196986    4.7197366    1.5019513     6.221688     4.609044   0.11069263 
 1089000   0.99937728    24.038818    4.7170426    1.4990622    6.2161048    4.6072788   0.10976383 
 1092000   0.99976446    24.105385    4.7149856     1.499643    6.2146286    4.6064801   0.10850552 
 1095000     1.000869    24.122732    4.7173029    1.5012997    6.2186026    4.6074573   0.10984556 
 1098000    1.0007535    24.186857    4.7191837    1.5011265    6.2203102    4.6077331   0.11145052 
 1101000   0.99966748    24.099913    4.7161659    1.4994975    6.2156634    4.6076531   0.10851272 
 1104000    1.0013193    24.110506    4.7164206    1.5019753    6.2183959    4.6068074   0.10961319 
 1107000    1.0003628    24.123783    4.7170096    1.5005405    6.2175501    4.6070125   0.10999706 
 1110000    1.0010021    24.161323    4.7150144    1.5014995    6.2165139    4.6064805   0.10853394 
 1113000    1.0013904    24.122345    4.7208623    1.5020819    6.2229441    4.6102367    0.1106256 
 1116000    1.0006157    24.141839    4.7181109    1.5009198    6.2190307    4.6075549   0.11055594 
 1119000    1.0004044    24.100412    4.7193377     1.500603    6.2199406    4.6088012   0.11053645 
 1122000   0.99933453    24.084294    4.7192989    1.4989981     6.218297    4.6089386   0.11036033 
 1125000   0.99947204    24.086888    4.7188703    1.4992043    6.2180746    4.6085907   0.11027955 
 1128000   0.99889497    24.022691    4.7175393    1.4983387     6.215878    4.6074355   0.11010378 
 1131000    1.0010998      24.1172    4.7154895    1.5016459    6.2171354    4.6056936   0.10979583 
 1134000     1.001352    24.108313    4.7148797    1.5020243     6.216904    4.6062076   0.10867215 
 1137000    1.0009935     24.11658    4.7177602    1.5014866    6.2192468    4.6073728   0.11038743 
 1140000    1.0020778    24.184797     4.716732     1.503113     6.219845    4.6064293   0.11030271 
 1143000   0.99927826    24.061656    4.7193187    1.4989137    6.2182324    4.6092247   0.11009401 
 1146000    1.0021357    24.116477    4.7202424    1.5031998    6.2234423    4.6106775   0.10956495 
 1149000    1.0001775    24.102549    4.7176991    1.5002625    6.2179616    4.6072734   0.11042567 
 1152000    1.0024062    24.147842    4.7166371    1.5036055    6.2202426    4.6071098   0.10952729 
 1155000    1.0008157    24.088098    4.7190699    1.5012199    6.2202898    4.6069719   0.11209805 
 1158000    1.0018144    24.094477    4.7182628    1.5027179    6.2209807    4.6073608   0.11090201 
 1161000     1.001931    24.100021    4.7197501    1.5028928     6.222643    4.6089676   0.11078253 
 1164000    1.0050357    24.116283    4.7200759    1.5075498    6.2276258    4.6102507    0.1098252 
 1167000   0.99976799     24.11319    4.7191988    1.4996483     6.218847    4.6081904   0.11100838 
 1170000   0.99839404    24.105987    4.7177749    1.4975874    6.2153623    4.6066066    0.1111683 
 1173000    1.0016291    24.192467    4.7175796    1.5024399    6.2200195     4.605915   0.11166462 
 1176000   0.99954414    24.106361    4.7193759    1.4993125    6.2186884    4.6071266   0.11224933 
 1179000    1.0019786    24.111797    4.7193622    1.5029641    6.2223263    4.6082114   0.11115079 
 1182000    1.0018543     24.13172     4.717909    1.5027778    6.2206868    4.6078981   0.11001093 
 1185000    1.0021319    24.069864    4.7169673    1.5031941    6.2201614    4.6069922   0.10997507 
 1188000   0.99932169    24.113633    4.7194609    1.4989788    6.2184397     4.608784   0.11067684 
 1191000    1.0008394    24.148647    4.7182733    1.5012553    6.2195286    4.6076865    0.1105868 
 1194000    1.0000875    24.104575    4.7187758    1.5001276    6.2189034    4.6084818   0.11029396 
 1197000     1.000554    24.142443    4.7222338    1.5008273    6.2230611    4.6091567   0.11307715 
 1200000    1.0020007    24.023543    4.7209714    1.5029973    6.2239687    4.6096432   0.11132815 
 1203000   0.99995687     24.14121    4.7214698    1.4999316    6.2214014    4.6083535   0.11311627 
 1206000    1.0019904    24.027705    4.7157192    1.5029819    6.2187011    4.6077163   0.10800292 
 1209000    1.0006446    24.168444    4.7178221    1.5009632    6.2187853    4.6073835   0.11043854 
 1212000   0.99948875    24.157801    4.7164158    1.4992294    6.2156452    4.6070761   0.10933967 
 1215000   0.99838936    23.987493    4.7158261    1.4975803    6.2134065    4.6052828   0.11054332 
 1218000   0.99861429    24.082051    4.7161336    1.4979177    6.2140513    4.6071816   0.10895196 
 1221000    1.0023432    24.110313    4.7187038    1.5035111    6.2222149    4.6076152    0.1110886 
 1224000    1.0009745    24.054495    4.7184212     1.501458    6.2198792    4.6085356    0.1098856 
 1227000    1.0002445    24.190968    4.7192798    1.5003631    6.2196429    4.6076523    0.1116275 
 1230000   0.99916097    24.097351    4.7209858    1.4987377    6.2197235    4.6085703   0.11241549 
 1233000    1.0009568    24.156631     4.716925    1.5014315    6.2183565    4.6081167   0.10880826 
 1236000   0.99891763    24.123335    4.7175809    1.4983727    6.2159536    4.6069946   0.11058625 
 1239000    1.0010069    24.090755    4.7182053    1.5015067     6.219712    4.6065847    0.1116206 
 1242000    1.0017257    24.167061    4.7161998    1.5025849    6.2187847    4.6074241   0.10877571 
 1245000    1.0009664     24.10877    4.7181098    1.5014459    6.2195557    4.6061465   0.11196338 
 1248000    1.0015044    24.062296     4.720539    1.5022529    6.2227919    4.6093196   0.11121939 
 1251000    1.0012357    24.125123    4.7188648    1.5018499    6.2207147    4.6099852   0.10887962 
 1254000    1.0013861    24.187645    4.7196371    1.5020754    6.2217125     4.609155   0.11048206 
 1257000   0.99959768    24.059812    4.7177282    1.4993928     6.217121     4.608138   0.10959027 
 1260000   0.99991992    24.113343    4.7159764    1.4998762    6.2158525    4.6057018   0.11027459 
 1263000    1.0028067    24.178171    4.7204155    1.5042063    6.2246217    4.6095543   0.11086114 
 1266000    1.0003677    24.141149     4.718064    1.5005479    6.2186119    4.6061554    0.1119086 
 1269000    1.0015882    24.113304    4.7177674    1.5023785     6.220146    4.6086994   0.10906807 
 1272000   0.99921443    24.125783    4.7203557    1.4988179    6.2191737    4.6089662    0.1113895 
 1275000    1.0012394    24.120678    4.7173401    1.5018554    6.2191955    4.6070152   0.11032492 
 1278000    1.0015135    24.189294    4.7179095    1.5022665     6.220176    4.6070027   0.11090673 
 1281000    1.0006456    24.098014    4.7143732    1.5009647    6.2153379    4.6052859   0.10908731 
 1284000   0.99949558    24.108549    4.7161649    1.4992397    6.2154046    4.6053206   0.11084434 
 1287000    1.0015075    24.033835     4.717817    1.5022575    6.2200745    4.6073296   0.11048743 
 1290000    1.0005123    24.116243    4.7166186    1.5007647    6.2173832    4.6073013   0.10931726 
 1293000   0.99901174     24.15621    4.7195884    1.4985139    6.2181023    4.6076987   0.11188968 
 1296000    1.0026513    24.095673    4.7178314    1.5039732    6.2218046    4.6079639   0.10986756 
 1299000     1.000213    24.087915    4.7206351    1.5003158    6.2209509    4.6084977   0.11213734 
 1302000     1.001055    24.089839    4.7177261    1.5015787    6.2193048    4.6060539   0.11167219 
 1305000    1.0011771      24.1984    4.7152513    1.5017619    6.2170131    4.6054675   0.10978372 
 1308000   0.99950884    24.050635    4.7157123    1.4992595    6.2149718    4.6062532   0.10945912 
 1311000    1.0006529    24.145695    4.7179992    1.5009756    6.2189748    4.6072786   0.11072056 
 1314000   0.99821812    24.105427    4.7203471    1.4973235    6.2176706    4.6079997   0.11234742 
 1317000    1.0005268    24.112323    4.7152798    1.5007865    6.2160663    4.6064086   0.10887119 
 1320000    1.0010357     24.13512    4.7168709    1.5015499    6.2184208     4.606219   0.11065185 
 1323000    1.0008855    24.048138    4.7184805    1.5013245     6.219805    4.6083233   0.11015728 
 1326000    1.0003439    24.127371    4.7159842    1.5005122    6.2164964    4.6055559   0.11042834 
 1329000   0.99877983    24.080737    4.7167197     1.498166    6.2148857    4.6055136   0.11120612 
 1332000    1.0016256    24.159194    4.7220547    1.5024347    6.2244894    4.6106648   0.11138995 
 1335000    1.0023002    24.137196    4.7159045    1.5034466    6.2193511    4.6068659   0.10903859 
 1338000    1.0019056    24.055124    4.7190279    1.5028547    6.2218826    4.6093244   0.10970349 
 1341000    1.0004049    24.038271    4.7172749    1.5006037    6.2178786    4.6064407   0.11083423 
 1344000   0.99731939    24.135549    4.7176124    1.4959754    6.2135878    4.6077163   0.10989612 
 1347000     1.001357    24.123211    4.7164828    1.5020318    6.2185147    4.6053487   0.11113411 
 1350000    1.0012267    24.070419    4.7157861    1.5018363    6.2176224    4.6058595   0.10992657 
 1353000    1.0001817    24.054636    4.7195458    1.5002688    6.2198146    4.6083795   0.11116635 
 1356000    1.0028155      24.1119    4.7163788    1.5042195    6.2205983    4.6059646    0.1104142 
 1359000    1.0028016     24.10006    4.7189491    1.5041986    6.2231477    4.6065211   0.11242804 
 1362000    1.0000679    24.153051    4.7171059    1.5000982    6.2172041    4.6068521    0.1102538 
 1365000   0.99906678    24.144035     4.716784    1.4985965    6.2153805     4.606275   0.11050901 
 1368000    1.0003259    24.093208    4.7189006    1.5004851    6.2193858    4.6074022   0.11149847 
 1371000    1.0024944    24.022017    4.7178435    1.5037378    6.2215813    4.6074699   0.11037356 
 1374000    1.0012451    24.122166    4.7169432    1.5018639    6.2188071    4.6088947   0.10804851 
 1377000    1.0016084     24.11402     4.717139    1.5024089    6.2195479    4.6068411   0.11029795 
 1380000    0.9991186    24.173254    4.7173977    1.4986742    6.2160719    4.6073317   0.11006606 
 1383000    1.0005797    24.157608    4.7170644    1.5008658    6.2179302    4.6064402   0.11062417 
 1386000    1.0007099    24.145161    4.7182451    1.5010611    6.2193062    4.6063266   0.11191845 
 1389000    1.0003945    24.106743    4.7187089     1.500588    6.2192969    4.6083487   0.11036018 
 1392000    1.0016365    24.104881    4.7195234     1.502451    6.2219744    4.6071489   0.11237445 
 1395000   0.99957647    24.157577    4.7168376     1.499361    6.2161986    4.6065476   0.11029007 
 1398000   0.99793625    24.183431    4.7163821    1.4969007    6.2132827    4.6065086   0.10987345 
 1401000    1.0013774    24.161804    4.7190719    1.5020624    6.2211343    4.6074694   0.11160246 
 1404000    1.0005857    24.093511    4.7197183    1.5008749    6.2205932    4.6087066   0.11101174 
 1407000    1.0002133    24.082039    4.7175556    1.5003162    6.2178718    4.6074775    0.1100781 
 1410000    1.0005096    24.112656    4.7189469    1.5007606    6.2197076    4.6081389   0.11080802 
 1413000    1.0006013    24.073081    4.7196725    1.5008983    6.2205708    4.6089332   0.11073931 
 1416000    1.0004812    24.068541     4.717611    1.5007181    6.2183291    4.6070311   0.11057996 
 1419000   0.99888707    24.111856    4.7174138    1.4983269    6.2157407    4.6066882   0.11072559 
 1422000   0.99901262    24.079157    4.7160962    1.4985152    6.2146114    4.6075498   0.10854642 
 1425000     0.999689    24.082485    4.7191208    1.4995298    6.2186506    4.6074679   0.11165286 
 1428000    1.0009261    24.089741    4.7166482    1.5013854    6.2180336    4.6067436   0.10990455 
 1431000   0.99947174    24.179934     4.718674    1.4992039    6.2178779     4.608107   0.11056703 
 1434000   0.99967474     24.09256    4.7176154    1.4995084    6.2171238    4.6072206   0.11039477 
 1437000    1.0003135    24.113199    4.7187922    1.5004665    6.2192587    4.6081113    0.1106809 
 1440000    1.0008789     24.01371    4.7170541    1.5013147    6.2183688     4.606997    0.1100571 
 1443000   0.99932101    24.140767    4.7182556    1.4989778    6.2172334    4.6069103   0.11134528 
 1446000    1.0001656    24.100692    4.7192652    1.5002447      6.21951    4.6080622   0.11120299 
 1449000   0.99880587    24.094824    4.7180275    1.4982051    6.2162326    4.6073501   0.11067743 
 1452000    1.0025211    24.132652    4.7180648    1.5037779    6.2218427    4.6065231   0.11154172 
 1455000   0.99942108    24.079159    4.7152404    1.4991279    6.2143683    4.6045421   0.11069832 
 1458000    1.0005312    24.126571     4.718186     1.500793    6.2189791    4.6085046   0.10968144 
 1461000    1.0006936    24.137641    4.7199441    1.5010367    6.2209808    4.6079041      0.11204 
 1464000     1.000808    24.162008    4.7181112    1.5012083    6.2193195    4.6057432   0.11236799 
 1467000    1.0014453    24.021803    4.7194903    1.5021642    6.2216545    4.6081881   0.11130221 
 1470000    1.0030604    24.051789    4.7163995    1.5045868    6.2209864      4.60664   0.10975955 
 1473000     1.001052     24.08563    4.7187002    1.5015742    6.2202744    4.6074078   0.11129237 
 1476000     1.000007    24.086488    4.7166532    1.5000067      6.21666    4.6061874   0.11046584 
 1479000    1.0016046     24.14718    4.7182827    1.5024032    6.2206858      4.60935   0.10893269 
 1482000    1.0006221    24.098781    4.7180329    1.5009295    6.2189624    4.6060994   0.11193351 
 1485000     1.002561    24.098902    4.7168694    1.5038378    6.2207072    4.6076173   0.10925212 
 1488000   0.99988999     24.08409     4.716601    1.4998313    6.2164322    4.6075088   0.10909215 
 1491000    0.9995347    24.118214     4.714122    1.4992983    6.2134204    4.6043933   0.10972879 
 1494000   0.99730322     24.05565    4.7147548    1.4959511     6.210706    4.6055233   0.10923157 
 1497000     1.001732    24.035369    4.7193456    1.5025943    6.2219399    4.6080746     0.111271 
 1500000     1.001805    24.115216    4.7191416    1.5027037    6.2218453    4.6083531   0.11078847 
 1503000    1.0009608    24.098292    4.7146577    1.5014374    6.2160951    4.6067618   0.10789595 
 1506000   0.99969503    24.097723    4.7187236    1.4995388    6.2182624    4.6069225   0.11180115 
 1509000   0.99989654    24.121262    4.7160801    1.4998411    6.2159212     4.605456   0.11062413 
 1512000    1.0016217    24.111707      4.71883    1.5024288    6.2212588    4.6081577   0.11067237 
 1515000    1.0008822    24.102242    4.7160103    1.5013196    6.2173299     4.607205   0.10880529 
 1518000     1.001927    24.076679    4.7174664    1.5028867    6.2203531    4.6075159   0.10995043 
 1521000    1.0026145    24.143714    4.7154386     1.503918    6.2193566    4.6061967   0.10924192 
 1524000    1.0002435    24.066116    4.7160686    1.5003615    6.2164302      4.60482   0.11124862 
 1527000    1.0018948    24.094671    4.7179408    1.5028385    6.2207793    4.6068563   0.11108453 
 1530000    1.0010636    24.021297    4.7202247    1.5015916    6.2218164    4.6085251   0.11169963 
 1533000    1.0002004    24.127318    4.7187154    1.5002969    6.2190123    4.6077235   0.11099189 
 1536000    1.0014921    24.148311    4.7183996    1.5022344     6.220634    4.6072891   0.11111047 
 1539000    1.0002162    24.159601    4.7157063    1.5003205    6.2160268    4.6059536    0.1097527 
 1542000    1.0013666    24.098719      4.71437    1.5020462    6.2164163    4.6063019   0.10806808 
 1545000   0.99979875    24.051827     4.718632    1.4996944    6.2183264    4.6082136   0.11041838 
 1548000   0.99976436    24.079342    4.7166893    1.4996428    6.2163321    4.6062754   0.11041395 
 1551000    1.0003246    24.029457    4.7187392    1.5004831    6.2192223    4.6068389   0.11190027 
 1554000    1.0019345    24.136168    4.7160204     1.502898    6.2189184    4.6058477   0.11017264 
 1557000    1.0000051    24.119079    4.7147774    1.5000039    6.2147813    4.6059113   0.10886607 
 1560000    1.0025078     24.12059    4.7164931    1.5037579     6.220251    4.6065989   0.10989416 
 1563000   0.99850763    24.076265    4.7211159    1.4977577    6.2188736    4.6083186   0.11279729 
 1566000    1.0026034    24.114429    4.7200327    1.5039013     6.223934     4.607999   0.11203371 
 1569000    1.0026388    24.082637    4.7144156    1.5039544    6.2183701    4.6045135   0.10990207 
 1572000    1.0031034    24.111119     4.718896    1.5046513    6.2235473    4.6083122   0.11058379 
 1575000    1.0005856    24.157246    4.7153295    1.5008746    6.2162041    4.6056718   0.10965769 
 1578000    1.0018926    24.129732    4.7181416    1.5028352    6.2209768    4.6070455   0.11109611 
 1581000    0.9998616    24.138662    4.7166881    1.4997887    6.2164768    4.6071378   0.10955032 
 1584000    1.0020093    24.113194    4.7162622    1.5030103    6.2192725     4.606332   0.10993019 
 1587000    1.0022617    24.079292    4.7150511    1.5033889      6.21844    4.6059845   0.10906655 
 1590000    1.0005489    24.183034    4.7174717    1.5008196    6.2182913    4.6068616   0.11061004 
 1593000    1.0028229    24.128591     4.719016    1.5042306    6.2232465    4.6080107   0.11100528 
 1596000    1.0011747    24.127584    4.7138099    1.5017583    6.2155682    4.6039564   0.10985349 
 1599000   0.99983109    24.116014    4.7163555    1.4997429    6.2160985    4.6065763   0.10977925 
 1602000   0.99995776     24.06822    4.7146345    1.4999329    6.2145674     4.604812   0.10982247 
 1605000    1.0008554    24.037892    4.7172551    1.5012794    6.2185345    4.6080866   0.10916853 
 1608000    1.0003422    24.118512    4.7173926    1.5005096    6.2179022     4.608069   0.10932358 
 1611000    1.0017397    24.076261    4.7152297    1.5026058    6.2178355    4.6059698   0.10925985 
 1614000    1.0023895    24.119092    4.7178235    1.5035805     6.221404    4.6072314   0.11059209 
 1617000   0.99929146     24.12133    4.7185868    1.4989335    6.2175202    4.6073957   0.11119105 
 1620000   0.99961867    24.051446    4.7178249    1.4994243    6.2172492    4.6072313   0.11059355 
 1623000     1.001881    24.046135    4.7181042    1.5028178     6.220922    4.6073565   0.11074771 
 1626000   0.99911314    24.129809    4.7169462     1.498666    6.2156122    4.6058624   0.11108377 
 1629000   0.99903586    24.100918    4.7161052    1.4985501    6.2146552    4.6060803   0.11002486 
 1632000    1.0006058    24.069942    4.7166983    1.5009049    6.2176033    4.6076731   0.10902521 
 1635000   0.99984293    24.135188    4.7185377    1.4997607    6.2182984    4.6069802   0.11155749 
 1638000   0.99699669    24.072754     4.715861    1.4954913    6.2113524    4.6043221   0.11153893 
 1641000    1.0014512    24.138716    4.7207211     1.502173    6.2228941    4.6085522   0.11216884 
 1644000    0.9996528    24.115199    4.7147988    1.4994755    6.2142743    4.6043039   0.11049493 
 1647000    1.0008812    24.177436    4.7187227    1.5013181    6.2200407    4.6069638    0.1117589 
 1650000   0.99989452    24.057963    4.7151822    1.4998381    6.2150203    4.6056584   0.10952379 
 1653000    1.0015612    24.096977    4.7179411    1.5023381    6.2202792     4.607363   0.11057806 
 1656000    1.0009201     24.13302    4.7181464    1.5013764    6.2195228    4.6075126   0.11063383 
 1659000    1.0018124    24.069975    4.7164334    1.5027148    6.2191482    4.6067774   0.10965592 
 1662000   0.99956211    24.075723    4.7182715    1.4993395     6.217611    4.6083655   0.10990599 
 1665000   0.99955536    24.157586    4.7135596    1.4993293    6.2128889    4.6051894   0.10837023 
 1668000    1.0004602     24.10198     4.716775    1.5006865    6.2174616    4.6060486   0.11072637 
 1671000    1.0012467    24.145807    4.7160949    1.5018664    6.2179613    4.6062564   0.10983845 
 1674000    1.0010297    24.095263    4.7181937    1.5015408    6.2197345    4.6084497   0.10974404 
 1677000   0.99957845    24.065841    4.7131536     1.499364    6.2125175     4.604737   0.10841652 
 1680000    1.0010428    24.034355    4.7190756    1.5015605     6.220636     4.608178   0.11089754 
 1683000   0.99979108     24.08406    4.7162949    1.4996829    6.2159778    4.6060054   0.11028955 
 1686000    1.0005011    24.069615    4.7153321    1.5007479      6.21608    4.6066909   0.10864114 
 1689000   0.99958682    24.062719    4.7195687    1.4993765    6.2189452    4.6085256   0.11104311 
 1692000    1.0000841    24.157749    4.7140195    1.5001225     6.214142    4.6065673   0.10745217 
 1695000    1.0010701    24.137778    4.7160494    1.5016014    6.2176508    4.6071456   0.10890379 
 1698000    1.0010661    24.107031     4.715711    1.5015954    6.2173064    4.6055172   0.11019382 
 1701000    1.0001265    24.040278    4.7179568    1.5001861    6.2181428    4.6065983   0.11135849 
 1704000   0.99883811    24.106977    4.7168361    1.4982535    6.2150895    4.6059939   0.11084216 
 1707000    1.0016098    24.137748    4.7172527    1.5024109    6.2196636    4.6072201   0.11003261 
 1710000    1.0009949    24.142682      4.71646    1.5014887    6.2179486    4.6057307    0.1107293 
 1713000    1.0020713    24.080645    4.7170751    1.5031033    6.2201784    4.6069137   0.11016142 
 1716000     1.001025     24.12343    4.7176827    1.5015338    6.2192165    4.6071244   0.11055827 
 1719000    1.0007073     24.15763    4.7151358    1.5010573    6.2161931    4.6059645   0.10917136 
 1722000   0.99913556    24.094374    4.7153634    1.4986996     6.214063    4.6048759   0.11048749 
 1725000    1.0007731    24.048433     4.715722     1.501156     6.216878    4.6079712   0.10775073 
 1728000   0.99829806     24.08347    4.7185178    1.4974434    6.2159612    4.6063772   0.11214062 
 1731000    1.0011477     24.01482    4.7171335    1.5017178    6.2188513    4.6065272   0.11060632 
 1734000    1.0004347    24.105668    4.7180035    1.5006484    6.2186519    4.6062962   0.11170732 
 1737000   0.99922425    24.203411    4.7161866    1.4988327    6.2150193    4.6063439   0.10984273 
 1740000    1.0002233    24.113133    4.7192714    1.5003312    6.2196026    4.6065666    0.1127048 
 1743000    1.0016187    24.110581    4.7205906    1.5024243    6.2230149     4.608863   0.11172758 
 1746000     1.000552    24.099027    4.7186338    1.5008243    6.2194581     4.607326   0.11130783 
 1749000    1.0015238    24.100213    4.7196183     1.502282    6.2219003    4.6087665   0.11085186 
 1752000    1.0004503    24.156727    4.7167799    1.5006717    6.2174516    4.6059433   0.11083657 
 1755000   0.99933821    24.103196    4.7185224    1.4990036     6.217526    4.6091589   0.10936346 
 1758000    1.0022963    24.146139    4.7168693    1.5034408    6.2203101    4.6081862   0.10868308 
 1761000    1.0006363    24.097454     4.715811    1.5009507    6.2167617    4.6060235   0.10978748 
 1764000    1.0027179    24.167098    4.7160314    1.5040731    6.2201045    4.6065748   0.10945668 
 1767000     1.001056    24.095386    4.7136331    1.5015802    6.2152133    4.6056032   0.10802982 
 1770000    1.0016667    24.089267    4.7146927    1.5024963    6.2171889    4.6063213   0.10837138 
 1773000    1.0019207    24.122114    4.7200986    1.5028773     6.222976    4.6079403   0.11215839 
 1776000    1.0014656    24.118367    4.7178642    1.5021946    6.2200588    4.6073601   0.11050416 
 1779000      1.00066    24.125246    4.7213761    1.5009863    6.2223625    4.6085953   0.11278084 
 1782000    1.0020253    24.095684    4.7145826    1.5030343    6.2176169    4.6049956   0.10958696 
 1785000    1.0016796    24.119313    4.7158437    1.5025157    6.2183593    4.6060329   0.10981073 
 1788000    1.0004553    24.093417    4.7182298    1.5006793    6.2189091    4.6064478   0.11178195 
 1791000    1.0008578    24.058313    4.7169745     1.501283    6.2182574    4.6086531   0.10832135 
 1794000    1.0008769    24.176193    4.7179452    1.5013116    6.2192568    4.6075998   0.11034541 
 1797000    1.0016051    24.054052    4.7181591    1.5024039     6.220563    4.6068404   0.11131869 
 1800000   0.99932797    24.073422    4.7150125    1.4989882    6.2140007    4.6055933   0.10941918 
 1803000    0.9998815    24.046476     4.716792    1.4998185    6.2166106    4.6055794   0.11121267 
 1806000   0.99973938    24.094731    4.7149038    1.4996054    6.2145092    4.6062909   0.10861289 
 1809000    1.0017161    24.128572     4.717528    1.5025704    6.2200984    4.6072257   0.11030225 
 1812000      1.00228    24.126752    4.7157104    1.5034163    6.2191267    4.6061658   0.10954462 
 1815000    1.0015596      24.1133    4.7157865    1.5023357    6.2181222    4.6064063   0.10938016 
 1818000    1.0017439    24.038714    4.7177077    1.5026122    6.2203198    4.6067037   0.11100396 
 1821000    1.0005399    24.054498    4.7199495    1.5008061    6.2207556    4.6084436   0.11150589 
 1824000    1.0007879    24.014889    4.7189665    1.5011782    6.2201446    4.6074376   0.11152891 
 1827000    1.0001233    24.040835    4.7170823    1.5001812    6.2172635    4.6084336   0.10864874 
 1830000   0.99982978    24.137567    4.7163616     1.499741    6.2161026     4.606733   0.10962863 
 1833000    1.0012179     24.06599    4.7158481    1.5018231    6.2176712    4.6045983   0.11124985 
 1836000   0.99989248     24.08623    4.7166476     1.499835    6.2164826     4.607346   0.10930165 
 1839000   0.99919479    24.120585    4.7182503    1.4987885    6.2170387    4.6069365   0.11131378 
 1842000   0.99818257    24.110373    4.7160759    1.4972701     6.213346    4.6072398   0.10883606 
 1845000    1.0012257    24.134555    4.7149701    1.5018348    6.2168049    4.6057574   0.10921267 
 1848000    1.0039819    24.111778    4.7165673    1.5059691    6.2225365    4.6074765   0.10909087 
 1851000    1.0035469    24.141714     4.716658    1.5053167    6.2219747    4.6060277    0.1106303 
 1854000     1.000096    24.052136    4.7153449    1.5001402    6.2154852    4.6061985   0.10914643 
 1857000   0.99900527    24.144626    4.7166574    1.4985042    6.2151616    4.6062103   0.11044711 
 1860000    1.0005678    24.145231    4.7147005     1.500848    6.2155485    4.6055427   0.10915774 
 1863000     1.002402    24.166584    4.7173356    1.5035993    6.2209349     4.606601    0.1107346 
 1866000   0.99903357    24.115891    4.7162767    1.4985466    6.2148233    4.6052249   0.11105172 
 1869000    1.0017788    24.100571    4.7189003    1.5026645    6.2215648    4.6095347   0.10936562 
 1872000   0.99946733    24.120717    4.7150915    1.4991973    6.2142888    4.6060153   0.10907616 
 1875000   0.99936789    24.037321    4.7150631    1.4990481    6.2141112    4.6050568   0.11000626 
 1878000   0.99975701    24.185503    4.7186646    1.4996318    6.2182964    4.6081672   0.11049744 
 1881000   0.99988446    24.067825    4.7197213     1.499823    6.2195443    4.6077878   0.11193345 
 1884000    1.0057434    24.114367    4.7164166    1.5086114     6.225028    4.6063105   0.11010612 
 1887000     1.002345    24.161497     4.717867    1.5035137    6.2213808    4.6079868   0.10988026 
 1890000   0.99908025    24.056349    4.7182246    1.4986167    6.2168413    4.6077205   0.11050415 
 1893000    1.0008145    24.095449    4.7162939    1.5012181     6.217512    4.6050349   0.11125904 
 1896000   0.99954099    24.128649    4.7174277    1.4993078    6.2167354    4.6073959   0.11003176 
 1899000    1.0009356    24.105523    4.7183734    1.5013996    6.2197731    4.6063921   0.11198131 
 1902000   0.99930899    24.155271    4.7161049    1.4989598    6.2150647     4.606723   0.10938195 
 1905000     1.003621    24.111315     4.715982    1.5054277    6.2214097    4.6069254   0.10905662 
 1908000    1.0023216    24.210618     4.716676    1.5034787    6.2201547    4.6056177   0.11105832 
 1911000   0.99863948    24.121309    4.7162024    1.4979555    6.2141579    4.6043422    0.1118602 
 1914000   0.99948985    24.111098    4.7154208    1.4992311    6.2146519    4.6060707   0.10935015 
 1917000    0.9994774    24.129249    4.7179331    1.4992124    6.2171455    4.6074057   0.11052739 
 1920000     1.000015    24.074943    4.7169131    1.5000188    6.2169319    4.6066973   0.11021582 
 1923000   0.99787156    24.132403    4.7149475    1.4968036    6.2117511    4.6056361   0.10931134 
 1926000    1.0013036    24.156053    4.7174207    1.5019516    6.2193723    4.6064632   0.11095752 
 1929000    1.0013014    24.115856    4.7162883    1.5019483    6.2182367    4.6050896   0.11119871 
 1932000    1.0007913    24.085661    4.7142802    1.5011833    6.2154634    4.6062144   0.10806576 
 1935000    1.0006532    24.060586    4.7188224    1.5009761    6.2197985    4.6082952   0.11052719 
 1938000    1.0017587    24.053658     4.715557    1.5026343    6.2181913    4.6053515   0.11020551 
 1941000   0.99853702    24.120568    4.7161953    1.4978018    6.2139971    4.6052361   0.11095926 
 1944000    1.0020343    24.156279    4.7207218    1.5030478    6.2237696    4.6092444   0.11147741 
 1947000    1.0002881    24.060941    4.7170706    1.5004284     6.217499    4.6055639   0.11150664 
 1950000    1.0022167    24.156258    4.7167731    1.5033214    6.2200945    4.6060572   0.11071595 
 1953000    1.0006525    24.116361    4.7170622    1.5009751    6.2180374    4.6063464   0.11071587 
 1956000    1.0013356    24.078162    4.7146139    1.5019997    6.2166136    4.6062781   0.10833579 
 1959000    1.0032509    24.124834    4.7161899    1.5048726    6.2210625     4.604727   0.11146294 
 1962000    1.0010372    24.067769    4.7160443    1.5015521    6.2175963    4.6059558   0.11008845 
 1965000   0.99971028    24.106504    4.7147021    1.4995617    6.2142638    4.6051705   0.10953154 
 1968000     1.002137    24.080537    4.7186675    1.5032018    6.2218694    4.6082919   0.11037564 
 1971000    1.0004046    24.141464    4.7165687    1.5006032    6.2171719    4.6060332   0.11053549 
 1974000    1.0017909    24.146373    4.7171003    1.5026826     6.219783    4.6076495   0.10945085 
 1977000    1.0008946    24.075644    4.7149783    1.5013381    6.2163164     4.605038   0.10994029 
 1980000    1.0001522    24.088494    4.7185224    1.5002246     6.218747     4.606175   0.11234741 
 1983000     1.001092     24.02311    4.7168746    1.5016343    6.2185089    4.6054017    0.1114729 
 1986000    1.0024319    24.113214     4.715832    1.5036442    6.2194761    4.6047171   0.11111481 
 1989000    1.0018661    24.082263    4.7159471    1.5027954    6.2187425    4.6078046   0.10814246 
 1992000    1.0005405    24.055261    4.7113128     1.500807    6.2121198    4.6045796   0.10673319 
 1995000   0.99958363    24.144132    4.7158011    1.4993717    6.2151729    4.6066959   0.10910519 
 1998000    1.0011283    24.093604    4.7165332    1.5016888     6.218222    4.6072576    0.1092756 
 2001000   0.99945481    24.154722    4.7184353    1.4991785    6.2176138     4.607196   0.11123928 
 2004000    1.0017689     24.12298    4.7139483    1.5026497     6.216598    4.6056035   0.10834482 
 2007000    1.0000471    24.082307    4.7176107    1.5000669    6.2176777    4.6086513   0.10895941 
 2010000    1.0011832    24.133693    4.7191296    1.5017711    6.2209007     4.608515   0.11061459 
 2013000   0.99914419    24.112859    4.7155024    1.4987126    6.2142149    4.6061107   0.10939162 
 2016000   0.99954139    24.060167    4.7189532    1.4993084    6.2182616    4.6103095   0.10864367 
 2019000     1.000677    24.141626    4.7173681    1.5010118    6.2183799     4.608313   0.10905507 
 2022000    1.0011774    24.051097    4.7173292    1.5017623    6.2190916    4.6079274   0.10940183 
 2025000    1.0008831    24.004214    4.7192694     1.501321    6.2205903    4.6081173    0.1111521 
 2028000    1.0016116    24.079504    4.7157501    1.5024137    6.2181638    4.6058856   0.10986446 
 2031000    0.9981158    24.140584    4.7159721      1.49717    6.2131421    4.6059855   0.10998663 
 2034000    1.0005735    24.164385    4.7155314    1.5008565    6.2163879    4.6046642    0.1108672 
 2037000   0.99990335    24.095719    4.7149668    1.4998513    6.2148181    4.6057106   0.10925619 
 2040000    1.0013694    24.149563    4.7166651    1.5020504    6.2187155    4.6066418   0.11002325 
 2043000    1.0003569    24.122784    4.7168386    1.5005317    6.2173702    4.6053876   0.11145094 
 2046000    1.0008389    24.139961    4.7138701    1.5012547    6.2151248    4.6056899    0.1081802 
 2049000   0.99830046    24.129585    4.7181178     1.497447    6.2155648    4.6065497   0.11156817 
 2052000   0.99919756    24.118367    4.7153705    1.4987926    6.2141631    4.6057372   0.10963323 
 2055000    1.0002936    24.113459    4.7180868    1.5004366    6.2185234    4.6057089   0.11237788 
 2058000    1.0027135    24.058546    4.7165132    1.5040666    6.2205798    4.6069419   0.10957133 
 2061000    1.0006638    24.099951    4.7194953     1.500992    6.2204873    4.6082162   0.11127912 
 2064000   0.99955123    24.153681    4.7170939    1.4993231     6.216417    4.6062537   0.11084017 
 2067000    1.0011632    24.148473     4.715183    1.5017411    6.2169242    4.6066667   0.10851631 
 2070000    1.0006242    24.170019    4.7142455    1.5009326    6.2151781    4.6048446    0.1094009 
 2073000   0.99990375    24.101212    4.7183459    1.4998519    6.2181978    4.6061907   0.11215515 
 2076000    1.0010656    24.182892    4.7156039    1.5015946    6.2171985    4.6051684   0.11043552 
 2079000    1.0006397    24.193694    4.7168755    1.5009559    6.2178314    4.6067552   0.11012028 
 2082000    1.0003693    24.137892    4.7153752    1.5005503    6.2159255     4.606627   0.10874818 
 2085000    1.0001137    24.107134    4.7178088    1.5001669    6.2179757    4.6070015   0.11080726 
 2088000    1.0003742    24.019841    4.7183028    1.5005576    6.2188604    4.6080127   0.11029008 
 2091000    1.0001567    24.068543    4.7168508    1.5002314    6.2170822    4.6060181   0.11083273 
 2094000    1.0004349    24.120915    4.7175375    1.5006486    6.2181862    4.6074684   0.11006916 
 2097000     1.002983    24.057874    4.7169886    1.5044708    6.2214594    4.6067327   0.11025593 
 2100000    1.0012491    24.092341    4.7169083    1.5018699    6.2187782    4.6066814   0.11022691 
 2103000    1.0001263    24.149845    4.7179145    1.5001857    6.2181002    4.6077308   0.11018373 
 2106000    1.0018211    24.150494    4.7157382    1.5027279    6.2184661    4.6052588   0.11047938 
 2109000   0.99907533    24.123878    4.7153544    1.4986093    6.2139637    4.6059336   0.10942085 
 2112000    1.0001355    24.021245    4.7144891    1.5001996    6.2146887    4.6049173   0.10957184 
 2115000    1.0016919    24.080754    4.7156106    1.5025342    6.2181447    4.6055191   0.11009146 
 2118000    1.0012817    24.094822    4.7173823    1.5019188    6.2193011    4.6071237   0.11025866 
 2121000   0.99904857    24.025417    4.7198381    1.4985691    6.2184073    4.6079514   0.11188674 
 2124000   0.99885616    24.129708     4.717626    1.4982805    6.2159065    4.6047981   0.11282792 
 2127000    1.0009955    24.095454    4.7166443    1.5014895    6.2181338    4.6074055    0.1092388 
 2130000    1.0012372    24.068236    4.7203561    1.5018521    6.2222082    4.6075167   0.11283935 
 2133000    1.0009207    24.120627    4.7183592    1.5013774    6.2197365    4.6070803   0.11127885 
 2136000   0.99949786    24.089575     4.717716    1.4992431    6.2169591    4.6065352   0.11118077 
 2139000   0.99956768     24.14707    4.7164774    1.4993478    6.2158252    4.6063171   0.11016029 
 2142000    1.0002281    24.158272    4.7147443    1.5003384    6.2150827    4.6056961   0.10904823 
 2145000    1.0021564    24.117355    4.7183576    1.5032309    6.2215885    4.6066172   0.11174049 
 2148000    1.0001874     24.02136    4.7179708    1.5002774    6.2182481    4.6046942   0.11327655 
 2151000    1.0009698    24.073789     4.717315    1.5014509     6.218766    4.6078262   0.10948886 
 2154000    1.0013858    24.135772    4.7199791    1.5020749     6.222054    4.6076145   0.11236453 
 2157000   0.99695542    24.100764    4.7184525    1.4954294    6.2138819    4.6063649   0.11208758 
 2160000    0.9992202    24.131549    4.7170542    1.4988266    6.2158807    4.6080615   0.10899264 
 2163000   0.99958276    24.109497    4.7158956    1.4993704     6.215266    4.6049847   0.11091082 
 2166000    1.0016212    24.067793    4.7171899    1.5024281     6.219618    4.6072968    0.1098931 
 2169000    1.0016769    24.079961    4.7145841    1.5025117    6.2170958    4.6058821   0.10870196 
 2172000   0.99753371    24.080152    4.7159344    1.4962969    6.2122313    4.6063899   0.10954451 
 2175000    1.0011301    24.106757    4.7195769    1.5016915    6.2212684    4.6088707   0.11070621 
 2178000    1.0000856     24.13753    4.7195427    1.5001247    6.2196674    4.6086715   0.11087127 
 2181000    1.0024657     24.13224    4.7150628    1.5036948    6.2187576    4.6065614   0.10850134 
 2184000    1.0011656     24.09472     4.716738    1.5017447    6.2184827    4.6067334   0.11000468 
 2187000    1.0003592     24.07161    4.7165517     1.500535    6.2170867    4.6066005   0.10995116 
 2190000    0.9988093    24.136747    4.7145422    1.4982102    6.2127525    4.6059638   0.10857845 
 2193000    1.0015805    24.070891    4.7170628    1.5023671    6.2194299    4.6055856   0.11147713 
 2196000   0.99972931    24.085055    4.7149981    1.4995902    6.2145884    4.6054853    0.1095128 
 2199000    1.0018604    24.059973    4.7151674    1.5027869    6.2179544    4.6055045    0.1096629 
 2202000    1.0004754    24.001398     4.716063    1.5007094    6.2167725    4.6064121   0.10965093 
 2205000   0.99947414    24.086504    4.7164692    1.4992075    6.2156767    4.6064746   0.10999467 
 2208000   0.99946982    24.102622    4.7190838     1.499201    6.2182848    4.6076467   0.11143705 
 2211000   0.99983304    24.021775    4.7156109    1.4997459    6.2153568    4.6052738   0.11033712 
 2214000   0.99903142    24.116539    4.7171726    1.4985434     6.215716     4.606792   0.11038055 
 2217000   0.99829292    24.109783    4.7149831    1.4974357    6.2124188    4.6055972   0.10938591 
 2220000   0.99851475    24.083842    4.7170856    1.4977684     6.214854    4.6049335   0.11215216 
 2223000    1.0012418    24.113261     4.715572     1.501859     6.217431    4.6079638    0.1076082 
 2226000   0.99958941    24.068116    4.7169354    1.4993804    6.2163158    4.6066898   0.11024561 
 2229000      1.00065    24.149534      4.71843    1.5009713    6.2194013    4.6070366    0.1113934 
 2232000   0.99978311    24.003355    4.7170624    1.4996709    6.2167333     4.607277   0.10978536 
 2235000   0.99925335    24.126827    4.7187074    1.4988763    6.2175837    4.6059777    0.1127297 
 2238000    1.0002017    24.088034    4.7177886    1.5002989    6.2180874    4.6076336     0.110155 
 2241000    1.0014656    24.060458     4.718193    1.5021947    6.2203877    4.6075178   0.11067526 
 2244000   0.99966265    24.048114    4.7170744    1.4994903    6.2165646    4.6063152   0.11075914 
 2247000   0.99960149    24.015423    4.7150035    1.4993985     6.214402    4.6064072   0.10859631 
 2250000   0.99889283    24.134679    4.7165997    1.4983355    6.2149352    4.6063095   0.11029018 
 2253000   0.99876441    24.113213    4.7137637    1.4981429    6.2119066    4.6049774   0.10878629 
 2256000    1.0012997    24.186174    4.7160257    1.5019458    6.2179714     4.606456   0.10956968 
 2259000    1.0011324    24.088532    4.7154141    1.5016948    6.2171089     4.606656   0.10875801 
 2262000    1.0026218     24.11717    4.7151216     1.503929    6.2190506    4.6059097   0.10921189 
 2265000     1.001214    24.123729    4.7219006    1.5018174     6.223718    4.6094199   0.11248067 
 2268000    1.0017813    24.149138    4.7223168    1.5026683    6.2249851    4.6083663   0.11395046 
 2271000    1.0018648    24.077671    4.7169378    1.5027935    6.2197313    4.6071754   0.10976238 
 2274000    1.0018531    24.047915    4.7170302    1.5027759    6.2198061    4.6057038    0.1113264 
 2277000    1.0029892    24.105913    4.7164829    1.5044801     6.220963    4.6075638    0.1089191 
 2280000     1.000395    24.136674    4.7162438    1.5005888    6.2168325    4.6066992   0.10954456 
 2283000    1.0003394    24.113196    4.7159289    1.5005054    6.2164343    4.6048387   0.11109021 
 2286000   0.99977487    24.163712      4.71547    1.4996586    6.2151286    4.6043225   0.11114743 
 2289000    0.9997792    24.138102    4.7168955    1.4996651    6.2165605    4.6066616   0.11023386 
 2292000    1.0023551    24.135019    4.7165076     1.503529    6.2200366    4.6068962   0.10961138 
 2295000    1.0003421     24.14859    4.7169201    1.5005095    6.2174296    4.6061372   0.11078289 
 2298000     1.001394    24.053262     4.717225    1.5020873    6.2193123    4.6056791   0.11154585 
 2301000       1.0002    24.080062    4.7158797    1.5002963     6.216176    4.6063132   0.10956644 
 2304000    1.0012528    24.038564    4.7191421    1.5018754    6.2210175    4.6074361   0.11170597 
 2307000    1.0003765    24.068007    4.7189208     1.500561    6.2194817    4.6072136   0.11170719 
 2310000    1.0007078    24.115175    4.7168361     1.501058     6.217894    4.6057844   0.11105164 
 2313000    1.0006622    24.141152    4.7171267    1.5009896    6.2181163    4.6069022   0.11022458 
 2316000    1.0020795    24.130087    4.7187543    1.5031155    6.2218698    4.6070044   0.11174987 
 2319000   0.99953305    24.121423    4.7199019    1.4992959    6.2191977    4.6077404   0.11216148 
 2322000   0.99988645    24.120752    4.7161694     1.499826    6.2159953    4.6057428    0.1104266 
 2325000    1.0008422    24.134438    4.7160971    1.5012596    6.2173566    4.6054644   0.11063267 
 2328000   0.99989447    24.167456    4.7186063     1.499838    6.2184443    4.6071326   0.11147375 
 2331000    1.0023059    24.101197    4.7187682    1.5034551    6.2222233    4.6083014   0.11046684 
[...]
 5202000    1.0014272     24.08754    4.7135647     1.502137    6.2157017     4.605744   0.10782068     51.63001    31.434857    27.702548 
 5208000    1.0020224    24.048382    4.7169754    1.5030298    6.2200053    4.6045595    0.1124159    53.700708    19.389113    47.066671 
 5214000    1.0016801    24.139136    4.7165317    1.5025164    6.2190481     4.604837   0.11169476    53.824601     28.45051    34.806717 
 5220000    1.0002695    24.101098     4.717368    1.5004006    6.2177686    4.6063411   0.11102694    72.679351    26.580757    63.235396 
 5226000    1.0008788    24.061935     4.718052    1.5013144    6.2193665    4.6052989   0.11275313    68.379971    40.132652    38.748045 
 5232000    1.0011678    24.032559    4.7192646    1.5017479    6.2210125    4.6062848   0.11297978    39.061561      21.5433    24.030541 
 5238000    1.0022882    24.112982    4.7166703    1.5034286    6.2200989    4.6047075    0.1119628    51.662628     12.16185    54.184893 
 5244000   0.99972496    24.037306    4.7131813    1.4995837     6.212765    4.6046295   0.10855184    48.139364    16.000107    44.086781 
 5250000    1.0001907     24.10865    4.7166927    1.5002824    6.2169751    4.6043379    0.1123548    27.750782    17.172734    14.510357 
 5256000   0.99858353    24.097934    4.7170539    1.4978716    6.2149255     4.605444    0.1116099    59.536545    27.675272    43.705459 
 5262000    1.0034062     24.07689    4.7169195    1.5051056    6.2220251    4.6064539   0.11046558    29.556633    11.919278    24.193908 
 5268000    1.0010305    24.112664    4.7155393    1.5015421    6.2170814    4.6064219   0.10911747    29.439388    11.029083    25.254196 
 5274000    1.0012524    24.143138    4.7143371    1.5018748     6.216212    4.6044952   0.10984189    32.358819     6.832789    35.015139 
 5280000   0.99941331      24.0517    4.7158593    1.4991163    6.2149756    4.6041507    0.1117086     56.49843    24.209013    44.292763 
 5286000    1.0023341    24.080448    4.7181137    1.5034974    6.2216112    4.6055365   0.11257722    38.355804    37.717328   0.87582365 
 5292000    1.0009676    24.094581    4.7177948    1.5014477    6.2192425    4.6074173   0.11037757    41.139601    14.731066    36.225708 
 5298000    1.0021674     24.12747    4.7163223    1.5032474    6.2195697     4.607016    0.1093063    46.420655    11.260309    48.230937 
 5304000    1.0006647    24.072529     4.716565    1.5009934    6.2175584    4.6077093   0.10885571    33.685061    17.798408    21.792397 
 5310000   0.99962171    24.121484    4.7130515    1.4994289    6.2124804    4.6034909    0.1095606    39.016353    36.886373    2.9217843 
 5316000    1.0008758    24.097148    4.7183271      1.50131    6.2196371    4.6087569   0.10957021     40.49914    27.194755    18.250189 
 5322000    1.0003824    24.026202    4.7175367    1.5005699    6.2181066    4.6071724    0.1103643    19.384727    12.199069    9.8568724 
 5328000     1.001771    24.114916    4.7153658    1.5026528    6.2180185     4.604239    0.1111268    19.899141    11.303229    11.791377 
 5334000    0.9993063    24.025336    4.7162259    1.4989557    6.2151816    4.6053007   0.11092517    38.137615    9.1913058     39.70688 
 5340000   0.99931887    24.013754    4.7185227    1.4989746    6.2174973    4.6072767   0.11124604    51.839807    35.764866    22.050679 
 5346000    1.0025791    24.117379    4.7152429    1.5038649    6.2191078     4.606882   0.10836091    66.347998    16.560683    68.295372 
 5352000    1.0024323    24.114311    4.7166567    1.5036447    6.2203015    4.6061485   0.11050824    53.101894    11.618822    56.904089 
 5358000    1.0009032    24.127414    4.7156966     1.501351    6.2170476    4.6049989    0.1106977    27.742819    1.9023597    40.665549 
 5364000    1.0016751    24.053797    4.7175624     1.502509    6.2200713     4.607693   0.10986934    51.443293    30.539103    28.675165 
 5370000    0.9994645    24.098533    4.7140258     1.499193    6.2132189    4.6048511   0.10917472    41.460464     13.92273    37.774677 
 5376000    1.0026349    24.032026    4.7154809    1.5039487    6.2194296    4.6047649   0.11071602     63.02961    32.709623    41.591212 
 5382000    1.0005072    24.105006    4.7164386    1.5007571    6.2171957    4.6062901   0.11014851    45.286487    21.232536    32.995825 
 5388000   0.99967512    24.021105    4.7141512     1.499509    6.2136602    4.6050171    0.1091341    57.395365     40.08057    23.751439 
 5394000    1.0020504    24.118189    4.7178824    1.5030718    6.2209543    4.6061125   0.11176996    29.414192    9.5195358    27.290344 
 5400000   0.99933301    24.031196    4.7176223    1.4989958    6.2166182    4.6072543   0.11036802    66.584758    45.839629    28.456973 
 5406000    1.0025559    24.109095    4.7151179    1.5038301     6.218948    4.6068236   0.10829428    12.714736    5.1356677    10.396529 
 5412000     1.000347    24.115688    4.7145292    1.5005168    6.2150459     4.604679   0.10985015    44.211868    19.739406    33.569914 
 5418000   0.99903355    24.025914    4.7168728    1.4985466    6.2154194    4.6067049   0.11016789    30.936867    24.673889    8.5911921 
 5424000    1.0014687    24.073611    4.7146265    1.5021993    6.2168258    4.6040454   0.11058109    50.697383    14.513335    49.635193 
 5430000     1.001136    24.113733    4.7141041    1.5017002    6.2158043    4.6039468    0.1101573    29.893637   0.62088542    40.154675 
 5436000   0.99999195    24.220419    4.7150851    1.4999842    6.2150693    4.6053157   0.10976938    48.453852    14.537001    46.525182 
 5442000    1.0017966    24.135946    4.7114868    1.5026912    6.2141781    4.6038531   0.10763373    59.558979    27.880741    43.454383 
 5448000    1.0017633    24.157042    4.7174929    1.5026412    6.2201341     4.606524    0.1109689     55.83235    19.438059    49.923593 
 5454000    1.0024868    24.130297    4.7139483    1.5037265    6.2176748     4.604978   0.10897029    33.555335    17.033824    22.663257 
 5460000   0.99934934    24.013537    4.7194626    1.4990203    6.2184829     4.606779   0.11268357    54.501849    28.644851     35.46914 
 5466000    1.0007153    24.129147     4.713217    1.5010692    6.2142862    4.6041331    0.1090839    51.401429     29.07399    30.627495 
 5472000    1.0010458    24.099121     4.717723     1.501565     6.219288    4.6065757   0.11114732    64.382825    33.461961     42.41546 
 5478000    1.0017573    24.118295    4.7160408    1.5026323    6.2186731    4.6077545   0.10828625    51.660129    30.917841    28.453076 
 5484000    1.0003447    24.184372     4.716705    1.5005133    6.2172183    4.6069929   0.10971203    23.282057    7.1280408    22.159149 
 5490000    1.0017494    24.100971    4.7166658    1.5026204    6.2192862    4.6056539   0.11101185    44.847739     24.93915    27.309456 
 5496000    1.0023992    24.044237    4.7187845     1.503595    6.2223795    4.6071458   0.11163872     71.34523    35.844899     48.69731 
 5502000    1.0018101    24.075378    4.7169864    1.5027114    6.2196978     4.606369   0.11061741    35.871013    21.508612    19.701515 
 5508000    1.0003638    24.104738    4.7169808     1.500542    6.2175227    4.6077321   0.10924874    24.619993    11.325337    18.236844 
 5514000   0.99962707    24.177292    4.7164655    1.4994369    6.2159023    4.6047645   0.11170097    52.480085    42.256165    14.024585 
 5520000    1.0005875    24.140501    4.7161071    1.5008775    6.2169846    4.6052624   0.11084468    52.227171    18.458127    46.322429 
 5526000    1.0011055    24.115502    4.7140842    1.5016545    6.2157387    4.6041627   0.10992153    31.973784    12.907766    26.153665 
 5532000    1.0015408    24.112075    4.7166586    1.5023075    6.2189661    4.6064565   0.11020214    65.379111    8.2792553    78.326294 
 5538000    1.0016055    24.114626    4.7179651    1.5024045    6.2203696    4.6073348   0.11063029    33.789005    3.4540342    51.087856 
 5544000   0.99959256    24.090223    4.7164408    1.4993851    6.2158259    4.6060329   0.11040786    63.167158    44.482476    25.630571 
 5550000    1.0010565    24.049321    4.7148823     1.501581    6.2164633     4.605487    0.1093953     59.97337    45.645728    19.653835 
 5556000     1.001065    24.041595    4.7160063    1.5015937    6.2176001    4.6063868   0.10961956    70.346438    30.464312    54.708003 
 5562000    1.0010694    24.096726    4.7144542    1.5016003    6.2160545    4.6062663   0.10818787    48.599433    33.788702    20.316508 
 5568000    1.0006918     24.13953    4.7137589     1.501034    6.2147929    4.6049166   0.10884233    50.994149    16.254662    47.653627 
 5574000    1.0014624    24.142086    4.7151051    1.5021899    6.2172949     4.605015    0.1100901    33.953403    5.0128527     39.69898 
 5580000    1.0004255      24.1481    4.7176166    1.5006346    6.2182512    4.6072155   0.11040109    56.987469    19.388838    51.575636 
 5586000    1.0010495    24.021604    4.7162816    1.5015705    6.2178521    4.6057684   0.11051323    24.077298    41.282328    23.600869 
 5592000    1.0017527    24.110987    4.7160909    1.5026253    6.2187161    4.6050187   0.11107214    39.148908    31.229077    10.863967 
 5598000    1.0009198    24.134081    4.7157449     1.501376     6.217121    4.6053047   0.11044016     56.90134    40.193651    22.918645 
 5604000    1.0014394    24.046121    4.7159223    1.5021554    6.2180777    4.6059907   0.10993159    50.024492    28.427227    29.625885 
 5610000    1.0030489     24.07088    4.7142101    1.5045696    6.2187797    4.6033416   0.11086851    50.399269    12.510853    51.973147 
 5616000    1.0017688    24.166737    4.7173692    1.5026495    6.2200187    4.6078715   0.10949767    60.684453    22.785465    51.987649 
 5622000    1.0030836    24.124344    4.7172794    1.5046217    6.2219011    4.6073166   0.10996278      68.4851    27.337131    56.444414 
 5628000   0.99936418    24.138992    4.7141597    1.4990426    6.2132022    4.6043647   0.10979491    31.175399    12.901124    25.067598 
 5634000    1.0004594    24.099341    4.7173567    1.5006854    6.2180421    4.6053866   0.11197013    29.059904    5.5005117    47.407987 
 5640000    1.0028216    24.189775    4.7167358    1.5042287    6.2209645    4.6054623   0.11127347    25.547701    4.3385546    29.093485 
 5646000    0.9994546    24.134872    4.7187593    1.4991782    6.2179375    4.6072595   0.11149986    53.000855    23.845455    39.993699 
 5652000   0.99996807    24.137726    4.7140742    1.4999484    6.2140226    4.6059337   0.10814051    45.359778     20.49387    34.109621 
 5658000    1.0022643    24.139268    4.7152823    1.5033928    6.2186751    4.6049905    0.1102918    46.509269    20.434068    35.768458 
 5664000     1.001161    24.121176    4.7181893    1.5017378    6.2199271    4.6069329   0.11125636    50.099577    12.113005    52.107792 
 5670000     1.001324    24.156443     4.716744    1.5019823    6.2187263    4.6052905    0.1114535     41.61032    15.091678    36.376747 
 5676000    1.0035872     24.11902    4.7146664    1.5053771    6.2200435    4.6055739   0.10909252    49.161685    27.420424    29.823409 
 5682000    1.0023048    24.093892    4.7184592    1.5034535    6.2219127    4.6077556   0.11070368    35.118057    3.2027227    43.779618 
 5688000   0.99969676     24.04262    4.7164446    1.4995414     6.215986      4.60525   0.11119456    37.069062    23.981642     17.95257 
 5694000    1.0022754    24.033387    4.7133921    1.5034095    6.2168015    4.6043319   0.10906019     28.81414    12.097793    56.120634 
 5700000    1.0000869     24.07106    4.7155515    1.5001266     6.215678    4.6055882    0.1099633    43.137642    43.489925   0.48324151 
 5706000    1.0001128    24.149651    4.7151607    1.5001655    6.2153262    4.6055706   0.10959006    48.203721    18.918656    40.171565 
 5712000    1.0014928    24.109355    4.7129479    1.5022354    6.2151833    4.6045441   0.10840381    50.711238    20.289561    41.730704 
 5718000    1.0015485    24.088767    4.7178514     1.502319    6.2201704    4.6084259   0.10942546    44.672831     28.32161    22.429664 
 5724000   0.99801823    24.102043    4.7172003    1.4970236     6.214224    4.6068518    0.1103485    48.839205    26.566941    30.551809 
 5730000    1.0010259    24.161491    4.7190793    1.5015351    6.2206144    4.6080153   0.11106401    43.925082    8.3297088    48.827682 
 5736000   0.99938169    24.146404     4.716397    1.4990688    6.2154658    4.6062269   0.11017005    32.009252    10.004841    30.184384 
 5742000     1.002163    24.078544     4.716621    1.5032407    6.2198618     4.605561   0.11106006    39.689322    22.958916    22.949807 
 5748000   0.99854383     24.09045    4.7156551     1.497812    6.2134671    4.6056675   0.10998755    43.384182    24.689673     25.64405 
 5754000    1.0018276    24.149894    4.7151485    1.5027376    6.2178861     4.604339   0.11080946    37.132863    31.675692    7.4858336 
 5760000    1.0013325    24.197721    4.7173735     1.501995    6.2193685    4.6061709   0.11120264     41.45447    34.579079    9.4312649 
 5766000   0.99986418    24.152947    4.7143539    1.4997926    6.2141465    4.6033698   0.11098415    51.449365    8.6922257    58.651782 
 5772000    1.0020282     24.07279    4.7142261    1.5030386    6.2172647    4.6061874   0.10803875     35.46619    33.737875    2.3708029 
 5778000    1.0013293    24.096248    4.7160864    1.5019902    6.2180766    4.6046299    0.1114565    39.561731    8.9878365    41.939508 
 5784000    1.0020616    24.053062    4.7181287    1.5030887    6.2212174    4.6066427   0.11148602    68.296313    37.033242    42.884881 
 5790000    1.0010434    24.192553    4.7204628    1.5015614    6.2220242    4.6083715   0.11209124    35.099959     15.82246    26.443763 
 5796000   0.99887944    24.144366    4.7180219    1.4983155    6.2163373    4.6059832   0.11203871    59.702242    24.326353    48.526608 
 5802000    1.0031239    24.064838     4.714974    1.5046821    6.2196561    4.6059155    0.1090585    35.898821    29.642733    8.5817413 
 5808000    1.0006482    24.142081    4.7182014    1.5009685    6.2191699    4.6069587   0.11124266    54.441313    15.060356    54.020528 
 5814000    1.0004604    24.147261    4.7153146    1.5006869    6.2160015    4.6054774   0.10983727    50.912208    8.2794752    58.481128 
 5820000   0.99915524    24.147456    4.7161501    1.4987291    6.2148793    4.6058838   0.11026637    56.629326    8.0088825    66.694725 
 5826000    1.0008908    24.103411    4.7192582    1.5013325    6.2205907    4.6070678   0.11219045    50.866035    30.902824    27.384383 
 5832000    1.0012128    24.137533    4.7190737    1.5018154    6.2208891      4.60739   0.11168369    60.642715    28.676278    43.849717 
 5838000    1.0011776     24.03652    4.7146123    1.5017627     6.216375    4.6039791   0.11063326    45.190935    16.237145    39.717141 
 5844000    1.0017743    24.076562    4.7178447    1.5026577    6.2205024    4.6071617   0.11068302    44.981613    13.473799    43.220605 
 5850000   0.99985087    24.084415    4.7183182    1.4997726    6.2180908    4.6058512   0.11246703    37.096817    18.947663    24.895965 
 5856000     1.001162    24.068283     4.716998    1.5017392    6.2187372     4.605233   0.11176491     50.69583    6.1423678    61.115873 
 5862000    1.0012526    24.121743    4.7133466    1.5018752    6.2152218    4.6044807   0.10886592    41.519439    37.903886    4.9596078 
 5868000    1.0010585     24.06596    4.7145872     1.501584    6.2161712    4.6054814    0.1091058    69.835461    41.373979    39.041821 
 5874000   0.99896733    24.107575    4.7144538    1.4984473     6.212901     4.603682   0.11077176    50.549062    29.518644    28.848316 
 5880000   0.99944883    24.167578    4.7150221    1.4991695    6.2141916    4.6057388   0.10928332    39.044713    10.721962     38.85152 
 5886000    1.0013698    24.067213     4.716938    1.5020509     6.218989    4.6075881   0.10934995    57.421116    44.217116    18.112486 
 5892000    1.0005077    24.102528    4.7155472    1.5007579    6.2163051    4.6061606   0.10938667    46.395372      38.7128     10.53851 
 5898000    1.0015376    24.118121    4.7149419    1.5023027    6.2172446    4.6059402   0.10900173    56.364599    30.246297    35.827583 
 5904000   0.99815458    24.093463    4.7154463    1.4972282    6.2126745    4.6046144     0.110832    30.627432    9.2616841    29.308302 
 5910000      1.00091    24.138289    4.7191619    1.5013613    6.2205232    4.6066726   0.11248929    40.103502    3.8436259    60.284139 
 5916000    1.0030919    24.086689    4.7152059    1.5046341      6.21984    4.6049781   0.11022786    62.789463    20.183564    58.444318 
 5922000   0.99934352    24.097358    4.7164599    1.4990116    6.2154714    4.6070344   0.10942545    32.316161    10.370668    30.103564 
 5928000    1.0007775    24.118613    4.7155196    1.5011626    6.2166822    4.6047301   0.11078949    50.896852    2.0826341    66.960533 
 5934000    1.0018686    24.076283    4.7155485    1.5027991    6.2183476    4.6056081   0.10994032    60.109067    27.082783    45.303554 
 5940000    1.0009965    24.118129    4.7148282    1.5014911    6.2163192     4.604825   0.11000318    37.162137    33.040131    5.6543303 
 5946000    1.0007714    24.175082    4.7185934    1.5011534    6.2197468    4.6063797   0.11221374    41.383396    19.960411    29.386817 
 5952000   0.99800864    24.068839    4.7172334    1.4970092    6.2142427    4.6061062   0.11112724    47.894349     24.14148    32.582818 
 5958000    1.0013781    24.071369    4.7165117    1.5020634     6.218575    4.6064514   0.11006024    48.453064    29.678852    25.753383 
 5964000   0.99856238    24.057281    4.7156904    1.4978399    6.2135302    4.6051984   0.11049198    55.134236    42.737973    17.004479 
 5970000     1.003237    24.131596     4.714459    1.5048518    6.2193108    4.6040633   0.11039573    42.955918    36.724182    8.5483354 
 5976000    1.0014099    24.077345    4.7164432    1.5021111    6.2185543    4.6061281   0.11031509    38.517727    40.526222    2.7551385 
 5982000    1.0021645     24.11167    4.7180159     1.503243    6.2212589    4.6087932   0.10922273    56.669839    39.928717    22.964506 
 5988000   0.99937621    24.082198    4.7148975    1.4990606    6.2139581    4.6043408   0.11055671    58.670797    23.542971    48.186329 
 5994000    1.0003684    24.099502    4.7152561    1.5005489     6.215805     4.607109   0.10814712    51.249518    21.144763    41.295968 
 6000000    1.0002364    24.091481    4.7160711    1.5003509     6.216422    4.6052314   0.11083968    59.088058    20.545969    52.869818 
Loop time of 286957 on 24 procs for 6000000 steps with 403744 atoms

Performance: 3613.082 tau/day, 20.909 timesteps/s
98.5% CPU use with 24 MPI tasks x no OpenMP threads

MPI task timing breakdown:
Section |  min time  |  avg time  |  max time  |%varavg| %total
---------------------------------------------------------------
Pair    | 1.8859e+05 | 1.9364e+05 | 2.0026e+05 | 850.3 | 67.48
Bond    | 7754       | 9780       | 10871      | 846.0 |  3.41
Neigh   | 7018.2     | 7024       | 7027.2     |   2.6 |  2.45
Comm    | 12194      | 18551      | 25547      |3167.3 |  6.46
Output  | 0.17717    | 0.17844    | 0.20235    |   1.2 |  0.00
Modify  | 54150      | 54228      | 54336      |  22.5 | 18.90
Other   |            | 3738       |            |       |  1.30

Nlocal:    16822.7 ave 16915 max 16736 min
Histogram: 1 2 1 3 4 5 4 3 0 1
Nghost:    23945.1 ave 24018 max 23871 min
Histogram: 3 2 2 1 4 2 3 4 1 2
Neighs:    2.85192e+06 ave 2.88513e+06 max 2.80834e+06 min
Histogram: 1 1 2 6 1 2 2 1 3 5

Total # of neighbors = 68446109
Ave neighs/atom = 169.528
Ave special neighs/atom = 0.0834588
Neighbor list builds = 60594
Dangerous builds = 0
Total wall time: 105:10:42
