ITEM: TIMESTEP
0
ITEM: NUMBER OF ATOMS
2016
ITEM: BOX BOUNDS pp pp pp
-2.3046419100000001e+01 2.3046419100000001e+01
-2.3046419100000001e+01 2.3046419100000001e+01
-3.1613750499999998e+01 3.1613750499999998e+01
ITEM: ATOMS id mol type x y z 
400595 400023 3 -9.95351 -16.2045 -26.9282 
400581 400023 3 -10.2137 -14.6083 -28.2239 
400589 400023 3 -10.0017 -15.0116 -27.5938 
400588 400023 3 -9.90525 -14.5823 -26.9145 
400580 400023 3 -10.1862 -13.8212 -28.2025 
400579 400023 3 -10.0613 -13.3725 -27.5516 
400578 400023 3 -10.1559 -12.5881 -27.4454 
400587 400023 3 -9.88772 -13.7892 -26.9152 
400577 400023 3 -9.84816 -12.1624 -26.8751 
400594 400023 3 -10.0563 -15.8275 -26.2225 
400593 400023 3 -9.98125 -15.0298 -26.2512 
400592 400023 3 -10.0736 -14.5693 -25.6052 
400591 400023 3 -9.87437 -13.7936 -25.5171 
400586 400023 3 -9.66273 -13.4372 -26.2445 
402073 400080 3 -9.78084 -20.8591 -23.925 
402074 400080 3 -9.89534 -21.5215 -23.5393 
402075 400080 3 -9.82045 -21.5105 -22.7399 
402076 400080 3 -9.88178 -22.2453 -22.3529 
402068 400080 3 -9.61193 -20.2441 -23.5212 
402069 400080 3 -9.64092 -20.1939 -22.7297 
402070 400080 3 -9.68076 -20.8667 -22.2503 
402059 400080 3 -9.7457 -18.9393 -23.5768 
402060 400080 3 -9.76417 -18.8238 -22.7463 
402061 400080 3 -9.62532 -19.4664 -22.322 
402077 400080 3 -9.6725 -22.2696 -21.5955 
402071 400080 3 -9.59928 -20.8673 -21.5197 
402063 400080 3 -9.7395 -20.1759 -21.0979 
402062 400080 3 -9.55164 -19.5189 -21.5272 
403281 400127 3 -9.6435 -8.84973 -22.1248 
403282 400127 3 -9.809 -8.66552 -21.3921 
403283 400127 3 -9.87663 -7.94807 -21.1 
403284 400127 3 -10.064 -7.69663 -20.383 
402375 400092 3 -9.80481 -10.4661 -14.353 
401409 400055 3 -9.9348 -10.5696 -14.4435 
401418 400055 3 -9.75668 -9.18513 -14.7116 
401424 400055 3 -9.79052 -7.79901 -14.935 
401423 400055 3 -9.75047 -8.55487 -15.2101 
401973 400076 3 -9.59602 -20.3578 -13.0156 
401967 400076 3 -9.58119 -18.9975 -12.8702 
401959 400076 3 -9.80541 -18.2818 -13.1178 
402389 400092 3 -9.51321 -12.3225 -13.4617 
402383 400092 3 -9.71484 -10.9877 -13.7668 
402382 400092 3 -9.91169 -10.8804 -12.9899 
402388 400092 3 -9.53419 -12.074 -12.7079 
402374 400092 3 -9.82225 -9.72301 -14.1037 
401410 400055 3 -10.0872 -10.3264 -13.6971 
401411 400055 3 -10.1196 -9.5728 -13.3993 
402373 400092 3 -9.80437 -9.52775 -13.329 
402381 400092 3 -9.91486 -10.1419 -12.7571 
401419 400055 3 -9.94299 -8.96875 -13.9478 
401420 400055 3 -9.93459 -8.21951 -13.7158 
402372 400092 3 -9.84366 -8.7664 -13.1105 
401421 400055 3 -9.84352 -8.0599 -12.9196 
402189 400085 3 -9.51608 -20.5116 -11.9386 
401972 400076 3 -10.0125 -20.2691 -12.3359 
402190 400085 3 -9.87751 -20.5098 -11.2743 
401971 400076 3 -9.85499 -19.701 -11.8037 
402198 400085 3 -9.54781 -19.1017 -11.9024 
401966 400076 3 -9.83972 -18.9822 -12.12 
402203 400085 3 -9.72052 -18.472 -12.3644 
402199 400085 3 -9.78932 -19.1201 -11.1562 
401965 400076 3 -9.82923 -18.3759 -11.5908 
402204 400085 3 -10.0244 -17.8293 -11.9568 
402205 400085 3 -9.90691 -17.7014 -11.1535 
401956 400076 3 -9.8332 -16.9823 -11.3124 
401958 400076 3 -9.76153 -17.6726 -12.5928 
401957 400076 3 -9.82463 -17.6264 -11.807 
400100 400004 3 -9.97324 -12.3568 -12.3799 
400101 400004 3 -9.84547 -13.0505 -11.9647 
402387 400092 3 -9.81863 -11.4186 -12.3888 
400099 400004 3 -9.87806 -11.6175 -12.0812 
402386 400092 3 -9.83374 -11.1726 -11.6516 
400098 400004 3 -9.85251 -10.9341 -12.5116 
400094 400004 3 -9.83182 -11.5113 -11.2857 
401412 400055 3 -10.188 -9.34252 -12.6175 
402380 400092 3 -9.99053 -9.87143 -12.0318 
402385 400092 3 -9.98574 -10.4072 -11.4768 
400092 400004 3 -9.66547 -10.0851 -11.3341 
400097 400004 3 -9.714 -10.2377 -12.1466 
402371 400092 3 -9.79365 -8.54278 -12.385 
401413 400055 3 -10.1389 -8.58054 -12.3897 
402191 400085 3 -9.8975 -19.831 -10.8334 
402192 400085 3 -9.84388 -19.8212 -10.0515 
401970 400076 3 -9.81591 -19.7948 -10.9962 
401969 400076 3 -9.79715 -19.177 -10.4981 
401964 400076 3 -9.62416 -18.4669 -10.8381 
402201 400085 3 -9.84003 -18.5118 -9.99766 
402193 400085 3 -10.0094 -19.1928 -9.62409 
402200 400085 3 -9.88465 -18.4335 -10.7943 
402206 400085 3 -9.86822 -17.0734 -10.6893 
401955 400076 3 -9.46435 -17.07 -10.574 
402207 400085 3 -9.92227 -17.1968 -9.87023 
403333 400129 3 -9.72299 -13.2449 -9.54173 
400095 400004 3 -9.92154 -12.1526 -10.8411 
403347 400129 3 -9.55359 -11.4324 -10.7806 
403342 400129 3 -9.51786 -11.9156 -10.1468 
400087 400004 3 -10.2085 -12.021 -10.1212 
400086 400004 3 -10.2353 -11.3134 -9.75318 
400093 400004 3 -9.72471 -10.7863 -10.9162 
403343 400129 3 -9.79152 -11.5766 -9.49739 
403348 400129 3 -9.73882 -10.6595 -10.7099 
403349 400129 3 -9.71096 -10.269 -9.99003 
403350 400129 3 -9.80744 -9.49828 -9.83885 
400085 400004 3 -9.99922 -10.7077 -10.1935 
400084 400004 3 -10.0882 -9.96331 -9.94765 
400083 400004 3 -9.82898 -9.33756 -10.3074 
402177 400084 3 -9.48763 -21.5717 -9.25403 
400537 400021 3 -9.42693 -22.3636 -8.26729 
402172 400084 3 -9.51504 -22.3099 -8.90215 
402173 400084 3 -9.75216 -22.2459 -8.11449 
400529 400021 3 -9.7119 -21.7628 -8.74677 
402178 400084 3 -9.71151 -20.8518 -8.89438 
400528 400021 3 -9.53174 -21.0339 -8.42338 
402179 400084 3 -9.79626 -20.8129 -8.12486 
402805 400108 3 -9.7217 -14.1602 -8.91412 
403047 400118 3 -10.0847 -14.0016 -8.61599 
403334 400129 3 -10.0839 -12.832 -8.967 
402804 400108 3 -9.64736 -13.4793 -9.31796 
402803 400108 3 -9.73682 -12.8137 -8.92262 
403048 400118 3 -10.1648 -13.2377 -8.40517 
402798 400108 3 -9.99503 -12.7565 -8.15165 
402802 400108 3 -9.64978 -12.1109 -9.29802 
403335 400129 3 -10.0028 -12.0921 -8.9337 
402801 400108 3 -9.76081 -11.4428 -8.87811 
403336 400129 3 -10.2862 -11.7142 -8.33742 
403337 400129 3 -10.2119 -10.9492 -8.06008 
402796 400108 3 -9.61448 -11.4555 -8.07377 
403344 400129 3 -9.82454 -10.7546 -9.37386 
403345 400129 3 -9.90788 -10.5107 -8.62642 
403351 400129 3 -10.0317 -9.28088 -9.15089 
402166 400084 3 -10.2461 -22.6626 -7.01576 
402165 400084 3 -9.978 -22.8945 -7.71018 
400541 400021 3 -9.84748 -22.8704 -7.0703 
402174 400084 3 -9.73345 -21.5196 -7.72857 
400536 400021 3 -9.70366 -22.2605 -7.53201 
402167 400084 3 -10.1032 -22.0494 -6.52732 
400535 400021 3 -9.6926 -21.5245 -7.21017 
402175 400084 3 -9.6424 -21.5132 -6.95399 
400534 400021 3 -9.69961 -21.4775 -6.38541 
400527 400021 3 -9.54355 -20.8681 -7.63258 
402180 400084 3 -9.78108 -20.1436 -7.69471 
400526 400021 3 -9.7606 -20.2141 -7.24826 
400525 400021 3 -9.87136 -20.0402 -6.45732 
402181 400084 3 -9.77375 -20.15 -6.89314 
401617 400063 3 -9.98573 -16.4585 -6.42104 
403056 400118 3 -9.99041 -14.2355 -7.21461 
401631 400063 3 -9.71532 -14.3736 -6.65911 
403061 400118 3 -9.80063 -14.7071 -6.56558 
402799 400108 3 -9.97762 -13.4505 -7.7348 
403049 400118 3 -10.0795 -12.9189 -7.69093 
402791 400108 3 -10.3482 -13.4707 -6.99118 
403057 400118 3 -9.9578 -13.4296 -7.10021 
402790 400108 3 -10.1665 -12.8227 -6.59701 
401632 400063 3 -10.1719 -13.7236 -6.36683 
403058 400118 3 -9.83347 -13.1828 -6.37751 
402797 400108 3 -9.90705 -12.1128 -7.73137 
403050 400118 3 -9.9928 -12.1976 -7.48409 
402789 400108 3 -10.0372 -12.1133 -6.93616 
402788 400108 3 -9.99496 -11.3742 -6.56958 
402787 400108 3 -9.70621 -10.7582 -6.92451 
403051 400118 3 -9.76844 -11.8468 -6.77962 
400540 400021 3 -9.83993 -22.7871 -6.32103 
400539 400021 3 -9.97949 -22.0883 -6.01797 
401618 400063 3 -10.3478 -16.3696 -5.67821 
401619 400063 3 -10.1715 -15.756 -5.18329 
401626 400063 3 -9.76377 -15.0568 -6.30252 
403062 400118 3 -10.0139 -14.5001 -5.84762 
401627 400063 3 -10.0254 -15.061 -5.52323 
401628 400063 3 -10.0629 -14.3612 -5.13169 
403063 400118 3 -10.0591 -13.6984 -5.79547 
401633 400063 3 -10.2221 -13.7118 -5.57376 
401634 400063 3 -10.3558 -13.0704 -5.14018 
403059 400118 3 -9.64624 -12.4351 -6.26506 
403064 400118 3 -10.1926 -13.345 -5.0811 
403065 400118 3 -10.0157 -12.6069 -4.8938 
401620 400063 3 -10.1399 -15.7097 -4.38172 
401629 400063 3 -9.98173 -14.3357 -4.33248 
401621 400063 3 -10.132 -15.0271 -3.99414 
401635 400063 3 -10.3706 -13.0283 -4.31484 
400554 400022 3 -9.77441 -22.2834 -0.747072 
400555 400022 3 -9.67548 -21.6797 -1.18801 
400851 400033 3 -9.94609 -21.6062 -0.275731 
400563 400022 3 -9.85583 -20.9704 -0.873156 
400562 400022 3 -10.022 -21.0123 -0.0816903 
400568 400022 3 -10.1246 -19.6448 -0.128262 
400569 400022 3 -10.0009 -19.5797 -0.909818 
400551 400022 3 -9.84278 -22.9859 1.28314 
400854 400033 3 -10.4581 -22.9162 1.32698 
400853 400033 3 -10.3482 -22.2936 0.868307 
400561 400022 3 -9.9746 -21.6517 0.337218 
400552 400022 3 -9.90262 -22.9277 0.501429 
400560 400022 3 -9.95143 -21.6459 1.14177 
400848 400033 3 -10.3528 -21.5889 1.1901 
400852 400033 3 -10.2023 -22.2581 0.0966752 
400553 400022 3 -9.87642 -22.3277 0.0238868 
400847 400033 3 -10.2351 -20.8633 0.839521 
400566 400022 3 -10.4661 -20.3229 1.06469 
400567 400022 3 -10.1616 -20.3145 0.3115 
400839 400033 3 -10.5018 -20.2376 1.24447 
400846 400033 3 -9.89184 -20.9024 0.164595 
400565 400022 3 -10.2944 -20.9789 1.46247 
402295 400089 3 -10.7611 -19.486 1.33329 
400838 400033 3 -10.3826 -19.5936 0.76925 
402294 400089 3 -10.5607 -19.3241 0.58691 
400837 400033 3 -9.74659 -19.5887 0.243165 
402293 400089 3 -10.1301 -18.6976 0.364281 
403608 400139 3 -10.2511 -19.1834 1.17647 
403610 400139 3 -10.377 -17.9948 0.365104 
403609 400139 3 -10.3887 -18.4067 1.0474 
403611 400139 3 -10.0703 -17.2695 0.190572 
403605 400139 3 -10.105 -17.1523 1.56555 
400855 400033 3 -10.3286 -22.9493 2.08809 
400849 400033 3 -10.3511 -21.6046 1.97851 
400840 400033 3 -10.8827 -20.3234 1.93221 
402297 400089 3 -11.1124 -20.3052 2.36289 
402296 400089 3 -11.1096 -20.1402 1.58548 
400841 400033 3 -10.705 -20.9561 2.29136 
402305 400089 3 -10.7496 -19.8675 2.90213 
403607 400139 3 -10.2012 -19.475 1.91131 
403602 400139 3 -10.2295 -18.9669 2.55479 
402304 400089 3 -10.6086 -19.0726 2.71162 
402303 400089 3 -10.527 -18.9863 1.90394 
402302 400089 3 -10.273 -18.2868 1.64683 
403604 400139 3 -10.3255 -17.8986 1.67086 
403603 400139 3 -10.4328 -18.1728 2.38658 
402308 400089 3 -10.4042 -17.7789 2.97661 
402307 400089 3 -10.4248 -17.7005 2.19775 
403596 400139 3 -10.5565 -16.9398 2.76579 
403595 400139 3 -10.5232 -17.6688 2.98651 
403597 400139 3 -10.3991 -16.6517 2.04222 
402309 400089 3 -10.3781 -18.5049 3.26434 
402311 400089 3 -10.5241 -19.4705 4.27019 
403593 400139 3 -10.1011 -18.6832 3.92975 
402310 400089 3 -10.435 -18.7369 4.02648 
403594 400139 3 -10.3055 -17.9346 3.68982 
401765 400068 3 -10.4358 -22.3569 7.72842 
403151 400122 3 -10.6368 -22.7465 7.96092 
403152 400122 3 -10.5934 -22.577 8.75546 
401764 400068 3 -10.7524 -23.0078 8.05244 
403493 400135 3 -10.2193 -21.6998 9.3454 
401759 400068 3 -10.2657 -21.9607 8.96732 
401758 400068 3 -10.2555 -22.6872 9.26258 
401751 400068 3 -10.5336 -21.4041 9.4387 
403492 400135 3 -10.4252 -22.2226 9.84227 
401757 400068 3 -10.1738 -22.788 10.0562 
403491 400135 3 -10.3424 -22.2779 10.5691 
401749 400068 3 -10.2069 -22.2028 10.5922 
403499 400135 3 -9.98885 -21.6385 10.8811 
401750 400068 3 -10.2418 -21.4956 10.2137 
403501 400135 3 -10.0838 -21.0235 9.68744 
403500 400135 3 -10.0266 -20.9013 10.5194 
403505 400135 3 -9.93708 -20.2111 10.8865 
403507 400135 3 -10.066 -19.615 9.54739 
403506 400135 3 -10.0382 -19.6193 10.3599 
403490 400135 3 -10.3768 -22.8858 11.0866 
403489 400135 3 -9.99365 -23.0034 11.7673 
401748 400068 3 -10.1994 -22.3891 11.3942 
403498 400135 3 -9.58889 -21.7619 11.551 
403504 400135 3 -9.7836 -20.3559 11.6588 
403503 400135 3 -9.55051 -21.0496 11.9772 
403229 400125 3 -9.68339 -9.54731 11.8523 
403238 400125 3 -9.97242 -8.24366 12.2953 
402657 400103 3 -9.70935 -10.7946 12.7118 
402666 400103 3 -9.50413 -11.3691 13.9324 
403230 400125 3 -9.88147 -9.73155 12.6511 
402658 400103 3 -9.7267 -10.1202 13.12 
402659 400103 3 -9.82447 -10.0117 13.893 
403232 400125 3 -10.0998 -9.30235 13.9982 
401269 400049 3 -9.92807 -7.71216 12.6953 
403231 400125 3 -10.092 -9.21603 13.2213 
403240 400125 3 -10.2904 -7.8776 13.5625 
401267 400049 3 -9.96109 -8.58214 13.7604 
403239 400125 3 -10.084 -8.45301 13.0514 
401268 400049 3 -9.73563 -8.42913 13.0147 
401479 400057 3 -10.0281 -15.9088 14.7259 
401531 400059 3 -9.7989 -13.969 14.5489 
403723 400144 3 -9.92197 -13.9202 14.332 
401478 400057 3 -9.96877 -15.1772 14.9955 
401530 400059 3 -10.0322 -14.4375 15.14 
403724 400144 3 -10.0204 -13.953 15.1424 
401477 400057 3 -9.93112 -15.0217 15.7594 
403732 400144 3 -9.71413 -12.5122 14.5375 
403725 400144 3 -10.0334 -13.3471 15.6559 
401525 400059 3 -9.72385 -12.9219 15.4744 
403733 400144 3 -9.81209 -12.6236 15.3272 
402671 400103 3 -9.50745 -12.0398 14.4125 
403737 400144 3 -9.54235 -11.7732 14.2375 
401517 400059 3 -10.0383 -12.1992 15.6251 
403734 400144 3 -9.73257 -11.9589 15.7772 
402672 400103 3 -9.78999 -11.8955 15.0831 
403739 400144 3 -9.58635 -11.2623 15.4805 
402673 400103 3 -9.95115 -11.2329 15.5196 
403738 400144 3 -9.41799 -11.1319 14.6836 
402667 400103 3 -9.79804 -10.7011 14.2769 
402668 400103 3 -9.96495 -10.628 15.074 
402661 400103 3 -10.2206 -9.29846 14.9508 
402669 400103 3 -10.0129 -9.93076 15.4039 
402660 400103 3 -9.90389 -9.3154 14.2433 
403241 400125 3 -10.1417 -7.94229 14.304 
403233 400125 3 -10.1079 -8.6945 14.585 
401262 400049 3 -9.95554 -7.99239 14.2743 
401253 400049 3 -10.2985 -7.70375 15.5848 
403541 400137 3 -10.2134 -22.3453 16.3369 
401981 400077 3 -9.93576 -21.8099 16.6016 
403542 400137 3 -10.5306 -21.7616 16.8341 
401982 400077 3 -10.2238 -21.1576 16.9507 
400058 400003 3 -10.0507 -18.5534 16.914 
400057 400003 3 -10.0791 -18.2808 16.1578 
400066 400003 3 -9.8301 -17.0424 16.6996 
401465 400057 3 -10.3052 -16.9579 16.6272 
401473 400057 3 -10.1884 -16.3897 16.0885 
400071 400003 3 -10.0722 -16.2568 16.5626 
401472 400057 3 -10.0135 -15.6215 16.3234 
401471 400057 3 -9.95669 -15.3737 17.0814 
401464 400057 3 -10.0406 -16.7375 17.3411 
400072 400003 3 -9.97836 -15.7648 17.1626 
401528 400059 3 -9.69997 -14.7611 16.4333 
401476 400057 3 -10.0053 -14.3121 16.0957 
401475 400057 3 -9.99239 -14.0759 16.8488 
401527 400059 3 -9.69627 -14.5259 17.1749 
401470 400057 3 -9.85655 -14.6513 17.3848 
401529 400059 3 -9.86084 -14.2216 15.8651 
401522 400059 3 -9.836 -13.7206 17.375 
401523 400059 3 -9.93123 -13.2045 16.8046 
403727 400144 3 -10.0532 -12.8212 16.8511 
401515 400059 3 -10.1741 -12.4736 16.9166 
403726 400144 3 -10.1618 -13.4477 16.4004 
401524 400059 3 -9.82143 -13.431 16.0375 
401516 400059 3 -10.2886 -11.9414 16.3276 
403735 400144 3 -9.8055 -12.1686 16.5272 
402674 400103 3 -10.0724 -11.2137 16.2951 
403741 400144 3 -9.8112 -10.7943 16.8301 
402675 400103 3 -9.90596 -10.5496 16.6867 
403740 400144 3 -9.64218 -10.7043 16.0436 
403550 400137 3 -10.0883 -23.0349 17.6088 
401995 400077 3 -10.0504 -22.9864 18.3212 
403551 400137 3 -10.1859 -22.3293 18.0005 
403543 400137 3 -10.3572 -21.6957 17.6174 
401990 400077 3 -9.87898 -22.4037 17.9429 
401991 400077 3 -10.0836 -21.7391 18.2751 
403552 400137 3 -10.1628 -22.3313 18.8064 
401983 400077 3 -10.122 -21.1248 17.7792 
403544 400137 3 -10.4096 -21.0703 18.0388 
401984 400077 3 -10.1344 -20.3967 18.1136 
403545 400137 3 -10.2285 -20.9943 18.7603 
401985 400077 3 -10.2988 -20.2434 18.8707 
400060 400003 3 -10.3457 -18.3132 18.3318 
400059 400003 3 -10.2247 -18.0857 17.5578 
400067 400003 3 -9.91389 -17.3428 17.4385 
400069 400003 3 -10.0662 -17.0836 18.7863 
400068 400003 3 -9.93794 -16.8163 18.0427 
401463 400057 3 -9.9927 -15.9595 17.6066 
400073 400003 3 -10.036 -16.0006 17.9108 
400074 400003 3 -10.1302 -15.5413 18.5185 
401462 400057 3 -10.0046 -15.8113 18.3545 
401461 400057 3 -9.83095 -15.1029 18.6804 
401514 400059 3 -10.2947 -12.3607 17.6904 
401513 400059 3 -10.0824 -12.7966 18.3076 
403557 400137 3 -10.1847 -22.9537 19.2651 
403558 400137 3 -10.2164 -22.8256 20.0635 
401996 400077 3 -10.3456 -23.0222 19.0503 
403553 400137 3 -9.92648 -21.5981 19.0965 
401992 400077 3 -10.2183 -21.6556 19.0199 
401997 400077 3 -10.2546 -22.2996 19.4221 
401998 400077 3 -10.3893 -22.1593 20.1738 
403559 400137 3 -10.0031 -22.1523 20.3709 
401993 400077 3 -10.2028 -20.9106 19.2903 
400061 400003 3 -10.3169 -17.8452 18.9697 
400075 400003 3 -9.8986 -15.7194 19.2079 
400630 400025 3 -10.111 -10.0977 20.0917 
400631 400025 3 -10.1466 -9.34185 20.1022 
400632 400025 3 -9.94462 -8.83509 19.5547 
403192 400123 3 -10.4215 -8.93142 20.1389 
403191 400123 3 -10.2306 -8.21391 20.3973 
400633 400025 3 -10.1481 -8.06961 19.652 
400641 400025 3 -10.3454 -7.79865 20.371 
401999 400077 3 -10.3629 -21.4423 20.5494 
403195 400123 3 -10.388 -10.9236 21.0996 
400491 400019 3 -10.6572 -11.3046 21.7093 
400490 400019 3 -10.8419 -10.545 21.4258 
400488 400019 3 -11.1373 -9.26919 21.7053 
400489 400019 3 -10.9161 -9.99891 21.9776 
403194 400123 3 -10.4636 -10.2717 20.6208 
400629 400025 3 -9.89605 -10.5537 20.6431 
403193 400123 3 -10.4839 -9.47994 20.7587 
400638 400025 3 -10.33 -9.58437 21.4626 
403188 400123 3 -10.5209 -9.25334 21.5131 
403189 400123 3 -10.6004 -9.85511 22.0367 
400645 400025 3 -10.8027 -8.01049 21.6515 
400639 400025 3 -10.3909 -9.09686 20.8122 
403187 400123 3 -10.5288 -8.44661 21.7117 
400640 400025 3 -10.5073 -8.31414 20.9748 
403186 400123 3 -10.2396 -7.93467 21.1387 
400485 400019 3 -10.5087 -10.8076 23.0242 
403181 400123 3 -10.7393 -9.56001 22.7402 
400484 400019 3 -10.7523 -10.1273 22.7449 
400483 400019 3 -10.691 -9.47084 23.1975 
400643 400025 3 -10.595 -9.33788 22.1501 
400487 400019 3 -10.8676 -8.65303 22.1745 
400644 400025 3 -10.9025 -8.57541 22.2456 
403180 400123 3 -10.6497 -8.84397 23.0164 
403179 400123 3 -10.5102 -8.24734 22.471 
400482 400019 3 -10.4262 -8.80173 22.8126 
400477 400019 3 -10.6802 -10.8928 23.8256 
400476 400019 3 -10.9717 -10.2351 24.1866 
400475 400019 3 -10.8228 -9.47105 23.9453 
400474 400019 3 -10.7625 -8.8717 24.4763 
400473 400019 3 -10.4611 -8.17849 24.0995 
402571 400099 3 -10.7335 -10.3325 26.8583 
402556 400099 3 -10.9473 -12.7163 27.9879 
402557 400099 3 -10.9286 -12.3422 27.289 
402816 400109 3 -10.3403 -12.7042 28.4382 
402565 400099 3 -10.6172 -11.5931 27.4286 
402817 400109 3 -10.4526 -12.209 27.8534 
402825 400109 3 -10.4976 -11.4008 27.9506 
402564 400099 3 -10.515 -11.33 28.1796 
402570 400099 3 -10.8981 -10.0841 27.6371 
402831 400109 3 -10.404 -10.0137 27.4152 
402569 400099 3 -10.638 -10.5335 28.2287 
402830 400109 3 -10.1626 -9.8195 28.1921 
402555 400099 3 -10.5716 -12.5523 28.6902 
402554 400099 3 -10.4233 -13.0673 29.2788 
402815 400109 3 -10.4142 -12.4527 29.1722 
402814 400109 3 -10.4841 -12.8364 29.8849 
402553 400099 3 -10.0592 -12.8357 29.9584 
402563 400099 3 -10.4368 -11.7884 28.8312 
402823 400109 3 -10.3909 -11.6648 29.3003 
402562 400099 3 -10.1646 -11.5342 29.5553 
402824 400109 3 -10.4476 -11.1282 28.6929 
402568 400099 3 -10.4022 -10.254 28.9311 
402829 400109 3 -10.3782 -10.3202 28.7782 
402828 400109 3 -10.4383 -10.1049 29.4968 
402567 400099 3 -10.1541 -10.71 29.5285 
402813 400109 3 -10.244 -12.6013 30.6258 
402822 400109 3 -10.2652 -11.3771 30.0659 
402827 400109 3 -10.3808 -10.5262 30.1813 
403585 400138 3 -11.3997 2.91975 -30.7332 
400815 400032 3 -10.8871 1.77698 -31.1819 
400823 400032 3 -10.7555 2.53232 -31.3797 
403584 400138 3 -11.1471 2.92227 -31.4883 
400829 400032 3 -10.9797 3.81377 -30.8961 
403578 400138 3 -10.4756 4.16043 -31.261 
403579 400138 3 -10.624 4.10129 -30.4649 
403569 400138 3 -10.2173 5.53933 -31.1348 
403570 400138 3 -10.3744 5.43354 -30.3471 
403577 400138 3 -10.1916 4.8715 -31.5567 
403568 400138 3 -10.0096 6.19376 -31.5241 
403571 400138 3 -10.4845 4.72308 -30.0097 
402865 400111 3 -17.1363 -4.96892 -27.3477 
402879 400111 3 -15.4238 -6.10738 -27.7439 
402874 400111 3 -15.9409 -5.50859 -27.72 
402875 400111 3 -15.6717 -4.84309 -28.051 
402876 400111 3 -14.8913 -4.69323 -28.0809 
402881 400111 3 -14.3618 -5.26088 -27.8781 
402880 400111 3 -14.6731 -5.94271 -27.6165 
402882 400111 3 -13.5554 -5.13925 -27.9684 
402866 400111 3 -16.9347 -4.35083 -27.7647 
402868 400111 3 -15.8303 -3.52079 -28.2328 
402867 400111 3 -16.1927 -4.22125 -28.1116 
402869 400111 3 -15.0752 -3.32907 -28.3115 
402877 400111 3 -14.5711 -3.95221 -28.0881 
402883 400111 3 -13.266 -4.48737 -27.7065 
403290 400127 3 -9.84688 -7.49882 -22.3886 
403295 400127 3 -10.1264 -6.92806 -22.8703 
403296 400127 3 -10.0971 -6.17484 -22.7552 
402218 400086 3 -10.1747 5.823 -22.2353 
402219 400086 3 -10.0631 6.42491 -22.7716 
402227 400086 3 -10.0499 7.15985 -22.481 
403291 400127 3 -9.93944 -7.37437 -21.669 
403293 400127 3 -10.2822 -6.50665 -20.6915 
403292 400127 3 -10.1428 -6.62805 -21.487 
403297 400127 3 -10.1157 -5.98748 -22.0009 
403299 400127 3 -10.0873 -5.04765 -20.9391 
403298 400127 3 -10.0873 -5.20263 -21.7441 
402216 400086 3 -10.2326 5.24942 -21.0081 
402217 400086 3 -10.2093 5.86161 -21.462 
402225 400086 3 -10.2055 6.60068 -21.1945 
400178 400007 3 -10.0877 7.08956 -21.4929 
400177 400007 3 -9.9844 7.249 -20.6794 
402226 400086 3 -10.2187 7.24646 -21.6761 
400179 400007 3 -10.1147 7.68128 -22.016 
403285 400127 3 -10.5083 -7.09617 -20.2432 
402215 400086 3 -9.92127 5.32098 -20.3161 
402224 400086 3 -9.91494 6.7137 -20.4394 
400176 400007 3 -9.82232 6.87386 -19.9652 
400175 400007 3 -9.90952 7.27638 -19.3629 
402229 400086 3 -9.93541 7.45435 -20.128 
401710 400066 3 -9.56807 -1.85267 -16.2159 
402594 400100 3 -9.895 -1.33908 -16.1639 
402595 400100 3 -9.89018 -0.505061 -16.1747 
401711 400066 3 -9.77909 -1.10419 -16.2771 
402596 400100 3 -10.1153 -0.0892674 -16.793 
401712 400066 3 -10.0217 -0.751078 -16.9207 
401713 400066 3 -10.008 0.0135563 -17.0371 
402597 400100 3 -10.1645 0.685004 -16.8953 
401704 400066 3 -9.59499 -1.9243 -14.8717 
402593 400100 3 -9.77151 -1.66917 -15.4168 
401709 400066 3 -9.56362 -2.32329 -15.5741 
401705 400066 3 -9.76813 -1.08844 -14.9517 
402588 400100 3 -9.65008 -1.18848 -14.7764 
402589 400100 3 -9.84614 -0.394916 -14.7666 
401697 400066 3 -9.98637 -0.714048 -14.2962 
401706 400066 3 -9.82416 -0.713582 -15.6114 
402590 400100 3 -9.85878 -0.0402171 -15.5047 
401707 400066 3 -9.84211 0.0622561 -15.6736 
401698 400066 3 -10.1398 0.063247 -14.4285 
401699 400066 3 -10.2488 0.452124 -15.117 
402583 400100 3 -10.1104 1.16249 -14.8646 
402591 400100 3 -10.0184 0.744441 -15.5448 
401426 400055 3 -10.0315 -6.84486 -13.9864 
401425 400055 3 -9.91289 -7.61919 -14.2064 
401427 400055 3 -9.83054 -6.65175 -13.2199 
401695 400066 3 -9.83489 -1.91991 -13.5217 
402579 400100 3 -9.50261 -1.16771 -13.3778 
401696 400066 3 -10.0399 -1.15977 -13.6263 
402581 400100 3 -9.87182 -0.0116903 -14.0401 
402580 400100 3 -9.7119 -0.389514 -13.3836 
402582 400100 3 -10.0312 0.794605 -14.1405 
401097 400043 3 -10.1776 3.52239 -10.9702 
401098 400043 3 -10.2843 3.35229 -10.1953 
401099 400043 3 -10.3581 3.91695 -9.60677 
401106 400043 3 -9.95856 4.94485 -10.5414 
401107 400043 3 -10.0979 4.65759 -9.77023 
401111 400043 3 -9.66946 5.65622 -10.6536 
401112 400043 3 -9.40514 6.03081 -10.0036 
400031 400002 3 -9.39184 6.83701 -9.94655 
400032 400002 3 -9.41546 7.62789 -9.86948 
401100 400043 3 -10.5397 3.7917 -8.84422 
401101 400043 3 -10.3575 4.20389 -8.19839 
401109 400043 3 -9.99868 4.85368 -8.3669 
401113 400043 3 -9.51233 5.83868 -9.251 
401108 400043 3 -9.85506 5.10767 -9.13018 
400243 400010 3 -10.2709 5.77367 -7.90984 
400242 400010 3 -9.98317 5.95183 -8.63608 
401114 400043 3 -9.47662 6.28038 -8.58935 
400241 400010 3 -9.74925 6.71237 -8.7494 
400041 400002 3 -9.25758 7.65809 -8.54801 
400240 400010 3 -9.68221 7.03346 -9.47277 
400249 400010 3 -9.4922 7.13407 -8.11856 
400045 400002 3 -9.36065 6.43128 -7.91681 
400040 400002 3 -9.17187 6.83445 -8.5876 
401115 400043 3 -9.71296 6.06268 -7.85998 
400251 400010 3 -9.86794 6.13586 -7.2839 
400250 400010 3 -9.64491 6.88446 -7.40626 
400046 400002 3 -9.50894 6.83697 -7.26302 
400255 400010 3 -9.64305 7.40076 -6.7949 
400047 400002 3 -9.58316 7.63437 -7.27363 
400257 400010 3 -10.1843 6.39447 -5.91147 
400256 400010 3 -9.96417 7.14216 -6.13421 
401491 400058 3 -9.82119 6.98154 -0.726889 
400916 400036 3 -10.1084 1.19969 0.875606 
400915 400036 3 -9.87369 0.40558 0.798248 
401505 400058 3 -9.87278 5.64779 1.06369 
401504 400058 3 -10.109 6.20284 1.56566 
401498 400058 3 -9.75066 7.21034 0.678373 
401943 400075 3 -9.6641 7.30466 0.103852 
401503 400058 3 -9.98367 6.96896 1.37778 
401938 400075 3 -9.66819 7.05424 0.833473 
401499 400058 3 -9.69116 6.72841 0.0493942 
401939 400075 3 -9.92427 7.58825 1.36813 
402946 400114 3 -10.5061 -0.156618 2.28636 
400929 400036 3 -10.2231 -0.252586 2.73264 
402947 400114 3 -10.4246 -0.703822 2.86567 
400917 400036 3 -10.2684 1.48668 1.58125 
400924 400036 3 -10.0736 0.263384 2.184 
402945 400114 3 -10.5844 0.564387 2.58962 
402944 400114 3 -10.6787 1.29019 2.23109 
400925 400036 3 -10.2626 1.03487 2.21426 
400926 400036 3 -10.4553 1.2899 2.95327 
400919 400036 3 -10.8824 2.49176 2.34651 
400918 400036 3 -10.7133 2.12902 1.67607 
402943 400114 3 -10.177 1.89328 2.2139 
400927 400036 3 -10.7028 2.02374 2.97933 
401929 400075 3 -9.61704 6.06129 1.81673 
401930 400075 3 -9.98673 6.61393 2.27127 
401502 400058 3 -10.0744 7.51613 1.91048 
401931 400075 3 -10.11 7.34506 2.1078 
402955 400114 3 -10.3433 -0.55354 3.663 
400930 400036 3 -10.2336 0.077966 3.45108 
402954 400114 3 -10.3741 0.176786 3.85292 
402953 400114 3 -10.3259 0.788575 3.29514 
400931 400036 3 -10.3782 0.810929 3.60136 
402952 400114 3 -10.0273 1.45498 3.48373 
400932 400036 3 -10.4183 1.1023 4.34867 
402959 400114 3 -10.508 0.33003 4.65246 
402957 400114 3 -10.1469 1.64007 4.27238 
400933 400036 3 -10.6364 1.89157 4.42197 
401071 400042 3 -9.87959 6.79375 3.81724 
401072 400042 3 -10.1112 7.28606 4.36775 
402961 400114 3 -10.5717 -0.981506 4.95411 
402960 400114 3 -10.739 -0.246897 5.13511 
402958 400114 3 -10.4456 1.11851 4.84763 
403648 400141 3 -10.7639 7.07078 6.93732 
402086 400081 3 -10.7699 6.7606 7.57931 
403649 400141 3 -10.7037 6.37468 7.18066 
402085 400081 3 -10.2807 6.14918 7.77595 
402087 400081 3 -10.7227 7.5155 7.82342 
403663 400141 3 -10.7373 5.58881 9.19223 
403657 400141 3 -10.8404 6.36469 7.96509 
403656 400141 3 -10.7256 7.02463 8.40488 
402094 400081 3 -10.111 6.86307 8.99698 
403661 400141 3 -10.6364 6.98103 9.28708 
402095 400081 3 -10.4993 7.5291 8.61921 
402323 400090 3 -10.6639 -2.56216 10.3586 
403455 400133 3 -10.4639 -2.7174 10.0165 
403454 400133 3 -10.6894 -2.12138 10.5109 
402331 400090 3 -10.2896 -1.83742 10.4745 
402322 400090 3 -10.7106 -3.05077 10.9934 
402337 400090 3 -10.4021 -0.558686 9.91655 
402336 400090 3 -10.3916 -0.272175 10.6652 
403662 400141 3 -10.6934 6.26804 9.60864 
402099 400081 3 -10.1954 6.90136 9.79594 
403660 400141 3 -10.325 7.62918 9.63114 
402100 400081 3 -10.5113 7.55219 10.1441 
401270 400049 3 -9.87438 -7.57625 11.9127 
403243 400125 3 -10.152 -7.48704 12.1005 
401271 400049 3 -10.0893 -6.84527 11.6342 
403244 400125 3 -10.55 -6.97367 12.5837 
403449 400133 3 -10.1753 -3.23267 11.278 
403441 400133 3 -10.1898 -3.92613 11.6691 
402320 400090 3 -10.251 -3.41855 12.3325 
403440 400133 3 -9.90772 -3.8347 12.3918 
403453 400133 3 -10.5206 -1.97424 11.2802 
402321 400090 3 -10.3459 -2.92518 11.676 
402329 400090 3 -10.3191 -2.12472 11.8335 
403448 400133 3 -10.2515 -2.55504 11.6828 
403447 400133 3 -10.1619 -2.50012 12.4441 
402330 400090 3 -10.3868 -1.54997 11.2351 
402328 400090 3 -10.106 -1.91559 12.5262 
402335 400090 3 -10.5179 -0.762502 11.2641 
403452 400133 3 -10.5826 -1.24611 11.6283 
402334 400090 3 -10.4356 -0.523329 11.9792 
403451 400133 3 -10.3805 -1.15332 12.3901 
402333 400090 3 -10.1966 -1.09655 12.5371 
401263 400049 3 -10.2365 -7.29904 13.9589 
403245 400125 3 -10.5532 -7.13714 13.3607 
401264 400049 3 -10.1999 -7.15268 13.208 
403246 400125 3 -10.6134 -6.58275 13.8988 
401265 400049 3 -10.387 -6.41613 12.9697 
401256 400049 3 -10.8693 -6.04219 14.1854 
401257 400049 3 -10.6051 -5.83637 13.4524 
402319 400090 3 -10.1045 -3.23289 13.0754 
403439 400133 3 -10.0663 -3.18747 12.8412 
403438 400133 3 -10.213 -3.12723 13.6556 
403446 400133 3 -10.2317 -1.82571 12.8282 
403437 400133 3 -10.1209 -2.44137 14.0963 
402701 400104 3 -10.5246 5.26573 13.9841 
401254 400049 3 -10.6071 -7.00593 15.2669 
401255 400049 3 -10.6499 -6.78772 14.4518 
403247 400125 3 -10.3162 -6.68634 14.6219 
401669 400065 3 -10.2446 0.34972 15.6271 
401854 400072 3 -10.33 0.815535 15.6514 
401679 400065 3 -10.4659 1.86314 15.711 
401678 400065 3 -10.1653 1.60492 15.0057 
401853 400072 3 -10.3936 1.59698 15.627 
401684 400065 3 -10.4369 2.84149 14.4532 
401852 400072 3 -10.4143 2.1291 15.0414 
401683 400065 3 -10.3722 2.05512 14.3707 
401851 400072 3 -10.3166 2.91846 15.0485 
401680 400065 3 -10.5828 2.67719 15.7716 
401685 400065 3 -10.5945 3.16551 15.1764 
401686 400065 3 -10.6902 3.94077 15.3447 
402700 400104 3 -10.8997 4.97042 14.6206 
401019 400040 3 -10.4308 4.73373 14.8893 
402699 400104 3 -10.7154 5.0925 15.3728 
402694 400104 3 -10.4485 5.82556 15.4644 
401021 400040 3 -10.545 6.13147 15.1738 
401020 400040 3 -10.4936 5.4711 14.685 
402695 400104 3 -10.4316 6.30363 14.8019 
401023 400040 3 -10.6124 7.48279 15.54 
401022 400040 3 -10.5682 6.8913 14.987 
402687 400104 3 -10.6171 7.09125 14.9845 
402686 400104 3 -10.6562 7.26093 15.7714 
401855 400072 3 -10.1795 0.328559 16.3005 
401670 400065 3 -10.6348 0.634697 16.2537 
401863 400072 3 -10.2518 0.77739 16.9717 
401671 400065 3 -10.6079 1.42803 16.3638 
401862 400072 3 -10.434 1.52769 17.0128 
401672 400065 3 -10.933 1.74308 17.0441 
401673 400065 3 -10.9282 2.55753 17.1073 
401861 400072 3 -10.3488 1.96597 16.3522 
401681 400065 3 -10.6206 3.00452 16.5144 
401860 400072 3 -10.1082 2.71895 16.3736 
401687 400065 3 -10.7946 4.17859 16.0821 
401865 400072 3 -10.107 3.08187 17.0661 
402698 400104 3 -10.7564 4.65674 16.0548 
402697 400104 3 -10.4527 4.90713 16.7651 
401033 400040 3 -10.2244 5.00914 16.9547 
402693 400104 3 -10.3889 6.089 16.2442 
402692 400104 3 -10.1855 5.62937 16.8524 
401028 400040 3 -10.2488 5.13728 16.1439 
401034 400040 3 -10.5663 5.56069 17.3875 