ITEM: TIMESTEP
0
ITEM: NUMBER OF ATOMS
3744
ITEM: BOX BOUNDS pp pp pp
-2.3046419100000001e+01 2.3046419100000001e+01
-2.3046419100000001e+01 2.3046419100000001e+01
-3.1613750499999998e+01 3.1613750499999998e+01
ITEM: ATOMS id mol type x y z 
400584 400023 4 -11.7419 -15.5518 -30.5126 
402550 400099 4 -9.83694 -14.502 -30.93 
402810 400109 4 -9.79361 -13.9725 -30.6211 
402549 400099 5 -9.54732 -14.9833 -30.1196 
402811 400109 4 -10.0116 -13.5065 -31.4154 
400583 400023 4 -11.2921 -15.2239 -29.7456 
400582 400023 4 -10.7601 -14.8876 -29.0112 
402809 400109 5 -9.46415 -14.2605 -29.912 
400598 400023 4 -10.1908 -18.7625 -26.9309 
400597 400023 4 -10.1582 -18.0025 -26.8943 
400596 400023 4 -10.1667 -17.1072 -26.9518 
400590 400023 5 -9.65841 -15.7731 -27.5059 
400595 400023 3 -9.95351 -16.2045 -26.9282 
400581 400023 3 -10.2137 -14.6083 -28.2239 
400589 400023 3 -10.0017 -15.0116 -27.5938 
400588 400023 3 -9.90525 -14.5823 -26.9145 
400580 400023 3 -10.1862 -13.8212 -28.2025 
400579 400023 3 -10.0613 -13.3725 -27.5516 
400578 400023 3 -10.1559 -12.5881 -27.4454 
400587 400023 3 -9.88772 -13.7892 -26.9152 
400577 400023 3 -9.84816 -12.1624 -26.8751 
402056 400080 4 -9.36657 -17.0775 -25.4429 
400594 400023 3 -10.0563 -15.8275 -26.2225 
402055 400080 5 -8.89549 -16.6015 -25.8312 
400593 400023 3 -9.98125 -15.0298 -26.2512 
400592 400023 3 -10.0736 -14.5693 -25.6052 
400591 400023 3 -9.87437 -13.7936 -25.5171 
400586 400023 3 -9.66273 -13.4372 -26.2445 
400585 400023 5 -9.56336 -12.6476 -26.2843 
400576 400023 4 -9.9065 -11.2306 -26.7297 
400575 400023 4 -9.6357 -10.3882 -26.6583 
400574 400023 4 -9.27246 -9.64741 -26.3879 
400573 400023 5 -8.68154 -8.89754 -26.4087 
402073 400080 3 -9.78084 -20.8591 -23.925 
402067 400080 5 -9.50057 -19.5914 -23.9085 
402058 400080 4 -9.75748 -18.2426 -24.0743 
402057 400080 4 -9.53022 -17.5691 -24.7172 
402074 400080 3 -9.89534 -21.5215 -23.5393 
402075 400080 3 -9.82045 -21.5105 -22.7399 
402076 400080 3 -9.88178 -22.2453 -22.3529 
402068 400080 3 -9.61193 -20.2441 -23.5212 
402069 400080 3 -9.64092 -20.1939 -22.7297 
402070 400080 3 -9.68076 -20.8667 -22.2503 
402059 400080 3 -9.7457 -18.9393 -23.5768 
402060 400080 3 -9.76417 -18.8238 -22.7463 
402061 400080 3 -9.62532 -19.4664 -22.322 
403278 400127 4 -9.4402 -11.1565 -23.3991 
403277 400127 5 -8.70413 -11.5867 -23.5075 
403279 400127 4 -9.59799 -10.4595 -23.0581 
403280 400127 4 -9.62415 -9.66436 -22.6429 
403289 400127 5 -9.48959 -8.21252 -22.5566 
402078 400080 4 -9.71514 -22.9768 -21.1081 
402077 400080 3 -9.6725 -22.2696 -21.5955 
402072 400080 5 -9.38677 -21.5825 -21.2508 
402071 400080 3 -9.59928 -20.8673 -21.5197 
402063 400080 3 -9.7395 -20.1759 -21.0979 
402062 400080 3 -9.55164 -19.5189 -21.5272 
403281 400127 3 -9.6435 -8.84973 -22.1248 
403282 400127 3 -9.809 -8.66552 -21.3921 
403283 400127 3 -9.87663 -7.94807 -21.1 
402064 400080 4 -10.1268 -20.0975 -20.3117 
402066 400080 4 -11.3048 -19.0414 -19.3794 
402065 400080 4 -10.6988 -19.6818 -19.8131 
403284 400127 3 -10.064 -7.69663 -20.383 
402377 400092 4 -10.2021 -11.0695 -16.0722 
402378 400092 4 -10.3932 -11.1313 -16.9753 
401976 400076 4 -9.76503 -22.5344 -14.3597 
401962 400076 4 -10.4961 -17.3649 -15.3293 
401961 400076 4 -10.2688 -17.7638 -14.6373 
401405 400055 5 -8.82944 -13.919 -14.93 
401406 400055 4 -9.32229 -13.1723 -15.2564 
401407 400055 4 -9.65505 -12.3528 -14.9794 
402376 400092 4 -9.90012 -10.8625 -15.1767 
401408 400055 4 -9.75456 -11.5365 -14.7548 
402375 400092 3 -9.80481 -10.4661 -14.353 
401409 400055 3 -9.9348 -10.5696 -14.4435 
401417 400055 5 -9.56049 -9.92795 -14.8783 
401418 400055 3 -9.75668 -9.18513 -14.7116 
401424 400055 3 -9.79052 -7.79901 -14.935 
401423 400055 3 -9.75047 -8.55487 -15.2101 
401975 400076 4 -9.75083 -21.7865 -13.9291 
402187 400085 4 -9.26709 -22.1611 -12.847 
402186 400085 4 -9.04813 -22.9993 -13.0969 
401974 400076 4 -9.62346 -20.9879 -13.449 
401973 400076 3 -9.59602 -20.3578 -13.0156 
401968 400076 5 -9.23754 -19.6589 -13.1152 
401967 400076 3 -9.58119 -18.9975 -12.8702 
401959 400076 3 -9.80541 -18.2818 -13.1178 
401960 400076 4 -9.976 -18.1374 -13.8281 
402392 400092 4 -10.2307 -14.5424 -13.5228 
402391 400092 4 -9.98494 -13.7722 -13.7479 
402390 400092 4 -9.75755 -13.0238 -13.6508 
402389 400092 3 -9.51321 -12.3225 -13.4617 
402384 400092 5 -9.46512 -11.7232 -13.9432 
402383 400092 3 -9.71484 -10.9877 -13.7668 
402382 400092 3 -9.91169 -10.8804 -12.9899 
402388 400092 3 -9.53419 -12.074 -12.7079 
402374 400092 3 -9.82225 -9.72301 -14.1037 
401410 400055 3 -10.0872 -10.3264 -13.6971 
401411 400055 3 -10.1196 -9.5728 -13.3993 
402373 400092 3 -9.80437 -9.52775 -13.329 
402381 400092 3 -9.91486 -10.1419 -12.7571 
401419 400055 3 -9.94299 -8.96875 -13.9478 
401420 400055 3 -9.93459 -8.21951 -13.7158 
402372 400092 3 -9.84366 -8.7664 -13.1105 
401421 400055 3 -9.84352 -8.0599 -12.9196 
402188 400085 4 -9.59201 -21.2597 -12.5024 
402189 400085 3 -9.51608 -20.5116 -11.9386 
401972 400076 3 -10.0125 -20.2691 -12.3359 
402190 400085 3 -9.87751 -20.5098 -11.2743 
401971 400076 3 -9.85499 -19.701 -11.8037 
402197 400085 5 -9.25341 -19.7914 -12.1912 
402198 400085 3 -9.54781 -19.1017 -11.9024 
401966 400076 3 -9.83972 -18.9822 -12.12 
402203 400085 3 -9.72052 -18.472 -12.3644 
402199 400085 3 -9.78932 -19.1201 -11.1562 
401965 400076 3 -9.82923 -18.3759 -11.5908 
402204 400085 3 -10.0244 -17.8293 -11.9568 
402205 400085 3 -9.90691 -17.7014 -11.1535 
401956 400076 3 -9.8332 -16.9823 -11.3124 
401958 400076 3 -9.76153 -17.6726 -12.5928 
401957 400076 3 -9.82463 -17.6264 -11.807 
400104 400004 4 -10.1772 -15.8003 -11.6757 
400103 400004 4 -10.1324 -14.9842 -11.9036 
403043 400118 5 -9.34215 -14.4928 -11.8111 
400102 400004 4 -9.98682 -14.034 -12.2297 
403044 400118 4 -9.87314 -14.3822 -11.1065 
400100 400004 3 -9.97324 -12.3568 -12.3799 
400101 400004 3 -9.84547 -13.0505 -11.9647 
400096 400004 5 -9.76593 -12.8851 -11.1586 
402387 400092 3 -9.81863 -11.4186 -12.3888 
400099 400004 3 -9.87806 -11.6175 -12.0812 
402386 400092 3 -9.83374 -11.1726 -11.6516 
400098 400004 3 -9.85251 -10.9341 -12.5116 
400094 400004 3 -9.83182 -11.5113 -11.2857 
401412 400055 3 -10.188 -9.34252 -12.6175 
402380 400092 3 -9.99053 -9.87143 -12.0318 
402385 400092 3 -9.98574 -10.4072 -11.4768 
400092 400004 3 -9.66547 -10.0851 -11.3341 
400097 400004 3 -9.714 -10.2377 -12.1466 
402371 400092 3 -9.79365 -8.54278 -12.385 
401413 400055 3 -10.1389 -8.58054 -12.3897 
402379 400092 5 -9.76736 -9.09728 -11.7945 
401414 400055 4 -10.3713 -8.45299 -11.5852 
400532 400021 4 -11.3837 -21.6382 -11.0346 
400531 400021 4 -10.7735 -21.8256 -10.3242 
400530 400021 4 -10.2288 -21.8315 -9.5763 
402191 400085 3 -9.8975 -19.831 -10.8334 
402192 400085 3 -9.84388 -19.8212 -10.0515 
401970 400076 3 -9.81591 -19.7948 -10.9962 
401969 400076 3 -9.79715 -19.177 -10.4981 
401964 400076 3 -9.62416 -18.4669 -10.8381 
402201 400085 3 -9.84003 -18.5118 -9.99766 
402193 400085 3 -10.0094 -19.1928 -9.62409 
402200 400085 3 -9.88465 -18.4335 -10.7943 
401963 400076 5 -9.34988 -17.8373 -10.4839 
402206 400085 3 -9.86822 -17.0734 -10.6893 
401955 400076 3 -9.46435 -17.07 -10.574 
402207 400085 3 -9.92227 -17.1968 -9.87023 
402202 400085 5 -9.63495 -17.8692 -9.62186 
402808 400108 4 -10.7556 -16.6061 -9.99077 
401954 400076 4 -9.54241 -16.5644 -9.86525 
402807 400108 4 -10.1774 -15.8456 -9.63905 
403329 400129 5 -8.6826 -16.3344 -10.6162 
403330 400129 4 -9.14303 -15.6692 -10.2032 
403331 400129 4 -9.55233 -14.9542 -9.96544 
403045 400118 4 -10.1465 -14.3241 -10.1584 
403332 400129 4 -9.71475 -14.0865 -9.6921 
403341 400129 5 -9.34936 -12.6972 -10.0398 
403333 400129 3 -9.72299 -13.2449 -9.54173 
400088 400004 4 -10.5258 -12.6324 -9.70633 
400095 400004 3 -9.92154 -12.1526 -10.8411 
403347 400129 3 -9.55359 -11.4324 -10.7806 
403342 400129 3 -9.51786 -11.9156 -10.1468 
400087 400004 3 -10.2085 -12.021 -10.1212 
400086 400004 3 -10.2353 -11.3134 -9.75318 
400093 400004 3 -9.72471 -10.7863 -10.9162 
403343 400129 3 -9.79152 -11.5766 -9.49739 
403348 400129 3 -9.73882 -10.6595 -10.7099 
400091 400004 5 -9.45894 -9.43988 -10.9986 
403349 400129 3 -9.71096 -10.269 -9.99003 
403350 400129 3 -9.80744 -9.49828 -9.83885 
400085 400004 3 -9.99922 -10.7077 -10.1935 
400084 400004 3 -10.0882 -9.96331 -9.94765 
400083 400004 3 -9.82898 -9.33756 -10.3074 
401415 400055 4 -10.5949 -8.3814 -10.8219 
400082 400004 4 -9.91075 -8.57023 -9.99655 
401416 400055 4 -10.74 -8.34311 -9.67925 
400081 400004 4 -9.89988 -7.74849 -9.65772 
402171 400084 5 -9.40381 -23.031 -9.2939 
402177 400084 3 -9.48763 -21.5717 -9.25403 
400537 400021 3 -9.42693 -22.3636 -8.26729 
402172 400084 3 -9.51504 -22.3099 -8.90215 
402173 400084 3 -9.75216 -22.2459 -8.11449 
400529 400021 3 -9.7119 -21.7628 -8.74677 
402178 400084 3 -9.71151 -20.8518 -8.89438 
400528 400021 3 -9.53174 -21.0339 -8.42338 
402179 400084 3 -9.79626 -20.8129 -8.12486 
402195 400085 4 -11.2855 -19.1244 -8.21566 
402194 400085 4 -10.5937 -19.1936 -8.91353 
402209 400085 4 -11.2316 -16.4954 -9.22459 
402210 400085 4 -12.0631 -16.5378 -9.47197 
402208 400085 4 -10.4038 -16.7235 -9.24526 
401953 400076 4 -9.54956 -15.9798 -9.30446 
401952 400076 4 -9.48758 -15.7099 -8.46858 
402806 400108 4 -9.86466 -14.9624 -9.33349 
403055 400118 5 -9.93187 -14.4391 -7.97953 
403046 400118 4 -10.0954 -14.2096 -9.37488 
402805 400108 3 -9.7217 -14.1602 -8.91412 
403047 400118 3 -10.0847 -14.0016 -8.61599 
402800 400108 5 -9.73541 -14.122 -8.12642 
400090 400004 4 -11.2381 -13.4888 -8.50916 
400089 400004 4 -10.7237 -13.0964 -9.14979 
403334 400129 3 -10.0839 -12.832 -8.967 
402804 400108 3 -9.64736 -13.4793 -9.31796 
402803 400108 3 -9.73682 -12.8137 -8.92262 
403048 400118 3 -10.1648 -13.2377 -8.40517 
402798 400108 3 -9.99503 -12.7565 -8.15165 
402802 400108 3 -9.64978 -12.1109 -9.29802 
403335 400129 3 -10.0028 -12.0921 -8.9337 
402801 400108 3 -9.76081 -11.4428 -8.87811 
403336 400129 3 -10.2862 -11.7142 -8.33742 
403337 400129 3 -10.2119 -10.9492 -8.06008 
402796 400108 3 -9.61448 -11.4555 -8.07377 
403344 400129 3 -9.82454 -10.7546 -9.37386 
403345 400129 3 -9.90788 -10.5107 -8.62642 
403346 400129 5 -9.77405 -9.6908 -8.49712 
403351 400129 3 -10.0317 -9.28088 -9.15089 
403352 400129 4 -10.0853 -8.49474 -8.9777 
402166 400084 3 -10.2461 -22.6626 -7.01576 
402165 400084 3 -9.978 -22.8945 -7.71018 
400541 400021 3 -9.84748 -22.8704 -7.0703 
402174 400084 3 -9.73345 -21.5196 -7.72857 
400536 400021 3 -9.70366 -22.2605 -7.53201 
402167 400084 3 -10.1032 -22.0494 -6.52732 
400535 400021 3 -9.6926 -21.5245 -7.21017 
402175 400084 3 -9.6424 -21.5132 -6.95399 
400534 400021 3 -9.69961 -21.4775 -6.38541 
400527 400021 3 -9.54355 -20.8681 -7.63258 
402180 400084 3 -9.78108 -20.1436 -7.69471 
402176 400084 5 -9.35596 -20.8213 -6.68195 
400526 400021 3 -9.7606 -20.2141 -7.24826 
400525 400021 3 -9.87136 -20.0402 -6.45732 
402181 400084 3 -9.77375 -20.15 -6.89314 
402196 400085 4 -11.8038 -18.9938 -7.70977 
402182 400084 4 -10.353 -19.6819 -6.41102 
401614 400063 4 -9.59746 -18.7749 -7.37336 
401613 400063 5 -9.13175 -19.5356 -7.26225 
401615 400063 4 -9.86354 -17.9582 -7.23402 
401616 400063 4 -9.95949 -17.2429 -6.9471 
401625 400063 5 -9.61459 -15.7995 -6.64926 
401617 400063 3 -9.98573 -16.4585 -6.42104 
401951 400076 5 -9.17744 -15.409 -7.68887 
402792 400108 4 -10.984 -14.2329 -6.5695 
403056 400118 3 -9.99041 -14.2355 -7.21461 
401631 400063 3 -9.71532 -14.3736 -6.65911 
403061 400118 3 -9.80063 -14.7071 -6.56558 
402799 400108 3 -9.97762 -13.4505 -7.7348 
403049 400118 3 -10.0795 -12.9189 -7.69093 
402791 400108 3 -10.3482 -13.4707 -6.99118 
403057 400118 3 -9.9578 -13.4296 -7.10021 
402790 400108 3 -10.1665 -12.8227 -6.59701 
401632 400063 3 -10.1719 -13.7236 -6.36683 
403058 400118 3 -9.83347 -13.1828 -6.37751 
402797 400108 3 -9.90705 -12.1128 -7.73137 
403050 400118 3 -9.9928 -12.1976 -7.48409 
402789 400108 3 -10.0372 -12.1133 -6.93616 
402788 400108 3 -9.99496 -11.3742 -6.56958 
402795 400108 5 -9.44671 -10.8337 -7.64836 
402787 400108 3 -9.70621 -10.7582 -6.92451 
403051 400118 3 -9.76844 -11.8468 -6.77962 
403052 400118 4 -9.70478 -11.0228 -6.44045 
403339 400129 4 -10.9622 -10.0753 -6.75245 
403338 400129 4 -10.4968 -10.6112 -7.38188 
402786 400108 4 -9.77092 -9.88989 -6.76319 
402785 400108 4 -9.59364 -8.99355 -6.58543 
402169 400084 4 -11.2087 -21.9387 -5.04142 
400540 400021 3 -9.83993 -22.7871 -6.32103 
400539 400021 3 -9.97949 -22.0883 -6.01797 
402168 400084 4 -10.714 -22.0147 -5.84762 
400533 400021 5 -9.7455 -20.7237 -6.08927 
402183 400084 4 -10.8478 -19.4687 -5.91721 
402184 400084 4 -11.7131 -19.2146 -5.63818 
400524 400021 4 -10.0973 -19.2678 -6.13654 
400523 400021 4 -10.2177 -18.4908 -5.91332 
400522 400021 4 -10.1373 -17.648 -5.78628 
400521 400021 5 -9.67491 -16.9737 -5.48691 
402794 400108 4 -11.5999 -15.5744 -6.0951 
401618 400063 3 -10.3478 -16.3696 -5.67821 
401619 400063 3 -10.1715 -15.756 -5.18329 
402793 400108 4 -11.3479 -14.947 -6.31215 
401626 400063 3 -9.76377 -15.0568 -6.30252 
403062 400118 3 -10.0139 -14.5001 -5.84762 
401627 400063 3 -10.0254 -15.061 -5.52323 
401628 400063 3 -10.0629 -14.3612 -5.13169 
403063 400118 3 -10.0591 -13.6984 -5.79547 
401633 400063 3 -10.2221 -13.7118 -5.57376 
401634 400063 3 -10.3558 -13.0704 -5.14018 
403059 400118 3 -9.64624 -12.4351 -6.26506 
403064 400118 3 -10.1926 -13.345 -5.0811 
403065 400118 3 -10.0157 -12.6069 -4.8938 
403060 400118 5 -9.59761 -12.2353 -5.45157 
403340 400129 4 -11.504 -9.65597 -6.24761 
403053 400118 4 -9.7716 -10.1702 -6.1943 
403054 400118 4 -9.91801 -9.23226 -6.02245 
402784 400108 4 -9.3951 -8.17659 -6.30492 
402170 400084 4 -11.6584 -21.9441 -4.27788 
400558 400022 4 -9.50191 -21.7891 -3.76713 
401620 400063 3 -10.1399 -15.7097 -4.38172 
401629 400063 3 -9.98173 -14.3357 -4.33248 
401621 400063 3 -10.132 -15.0271 -3.99414 
401635 400063 3 -10.3706 -13.0283 -4.31484 
401630 400063 5 -10.053 -13.6432 -3.96183 
401636 400063 4 -10.6562 -12.2972 -3.99637 
401637 400063 4 -10.9471 -11.5573 -3.50726 
403066 400118 4 -10.0911 -12.2731 -4.02243 
400557 400022 4 -9.58259 -21.8559 -2.96214 
400556 400022 4 -9.61311 -21.8445 -2.03434 
402290 400089 4 -9.35186 -18.4774 -2.03619 
400572 400022 4 -11.1816 -17.749 -2.50395 
400571 400022 4 -10.6318 -18.1976 -1.90219 
402289 400089 5 -8.87881 -18.2227 -2.73122 
403614 400139 4 -10.8827 -15.8243 -1.90185 
401623 400063 4 -10.4551 -15.1419 -2.23562 
401622 400063 4 -10.2499 -15.0985 -3.0992 
401638 400063 4 -10.9906 -11.0853 -2.74257 
403067 400118 4 -10.2092 -12.0244 -3.12913 
403068 400118 4 -10.3085 -11.6734 -2.34456 
400554 400022 3 -9.77441 -22.2834 -0.747072 
400555 400022 3 -9.67548 -21.6797 -1.18801 
400851 400033 3 -9.94609 -21.6062 -0.275731 
400563 400022 3 -9.85583 -20.9704 -0.873156 
400564 400022 5 -9.64954 -20.2635 -1.14727 
400845 400033 5 -9.5097 -20.2791 -0.0277188 
400562 400022 3 -10.022 -21.0123 -0.0816903 
400568 400022 3 -10.1246 -19.6448 -0.128262 
400570 400022 4 -10.2348 -18.8563 -1.48152 
400569 400022 3 -10.0009 -19.5797 -0.909818 
400836 400033 4 -9.81963 -18.887 -0.318525 
402292 400089 4 -9.75647 -18.4735 -0.484132 
400834 400033 4 -9.51059 -17.2629 -1.06012 
402291 400089 4 -9.54509 -18.4234 -1.22441 
400835 400033 4 -9.68725 -17.9997 -0.715928 
403612 400139 4 -10.1168 -16.8909 -0.687202 
403613 400139 4 -10.3582 -16.4293 -1.4028 
400833 400033 5 -9.31953 -16.439 -1.42513 
401624 400063 4 -10.8989 -15.2974 -1.55197 
400551 400022 3 -9.84278 -22.9859 1.28314 
400854 400033 3 -10.4581 -22.9162 1.32698 
400853 400033 3 -10.3482 -22.2936 0.868307 
400561 400022 3 -9.9746 -21.6517 0.337218 
400552 400022 3 -9.90262 -22.9277 0.501429 
400560 400022 3 -9.95143 -21.6459 1.14177 
400848 400033 3 -10.3528 -21.5889 1.1901 
400559 400022 5 -9.73086 -22.3101 1.52354 
400852 400033 3 -10.2023 -22.2581 0.0966752 
400553 400022 3 -9.87642 -22.3277 0.0238868 
400847 400033 3 -10.2351 -20.8633 0.839521 
400566 400022 3 -10.4661 -20.3229 1.06469 
400567 400022 3 -10.1616 -20.3145 0.3115 
400839 400033 3 -10.5018 -20.2376 1.24447 
400846 400033 3 -9.89184 -20.9024 0.164595 
400565 400022 3 -10.2944 -20.9789 1.46247 
402295 400089 3 -10.7611 -19.486 1.33329 
400838 400033 3 -10.3826 -19.5936 0.76925 
402294 400089 3 -10.5607 -19.3241 0.58691 
400837 400033 3 -9.74659 -19.5887 0.243165 
402293 400089 3 -10.1301 -18.6976 0.364281 
403608 400139 3 -10.2511 -19.1834 1.17647 
403610 400139 3 -10.377 -17.9948 0.365104 
403609 400139 3 -10.3887 -18.4067 1.0474 
402301 400089 5 -9.84766 -18.3257 1.00938 
403611 400139 3 -10.0703 -17.2695 0.190572 
403606 400139 5 -9.74591 -17.0012 0.875025 
403605 400139 3 -10.105 -17.1523 1.56555 
403600 400139 4 -10.9405 -14.1354 1.14907 
403599 400139 4 -10.7375 -14.8682 1.53417 
402300 400089 4 -12.6366 -22.4483 3.13043 
402299 400089 4 -12.0013 -21.7545 2.87927 
400855 400033 3 -10.3286 -22.9493 2.08809 
400850 400033 5 -10.0615 -22.2363 2.33498 
400849 400033 3 -10.3511 -21.6046 1.97851 
402298 400089 4 -11.4979 -21.0518 2.64957 
400840 400033 3 -10.8827 -20.3234 1.93221 
402297 400089 3 -11.1124 -20.3052 2.36289 
402296 400089 3 -11.1096 -20.1402 1.58548 
400841 400033 3 -10.705 -20.9561 2.29136 
402305 400089 3 -10.7496 -19.8675 2.90213 
403607 400139 3 -10.2012 -19.475 1.91131 
403602 400139 3 -10.2295 -18.9669 2.55479 
402304 400089 3 -10.6086 -19.0726 2.71162 
402303 400089 3 -10.527 -18.9863 1.90394 
402302 400089 3 -10.273 -18.2868 1.64683 
403604 400139 3 -10.3255 -17.8986 1.67086 
403603 400139 3 -10.4328 -18.1728 2.38658 
402308 400089 3 -10.4042 -17.7789 2.97661 
402307 400089 3 -10.4248 -17.7005 2.19775 
403596 400139 3 -10.5565 -16.9398 2.76579 
403595 400139 3 -10.5232 -17.6688 2.98651 
403597 400139 3 -10.3991 -16.6517 2.04222 
403598 400139 4 -10.5029 -15.6041 1.91494 
400843 400033 4 -10.8594 -21.2239 4.01697 
400842 400033 4 -10.6647 -21.0485 3.18049 
402306 400089 5 -10.5088 -19.9936 3.64447 
402309 400089 3 -10.3781 -18.5049 3.26434 
402311 400089 3 -10.5241 -19.4705 4.27019 
403601 400139 5 -9.97107 -19.1252 3.27551 
403593 400139 3 -10.1011 -18.6832 3.92975 
402310 400089 3 -10.435 -18.7369 4.02648 
403594 400139 3 -10.3055 -17.9346 3.68982 
400844 400033 4 -10.7569 -21.577 4.91413 
403147 400122 5 -9.70347 -20.2923 5.63602 
401768 400068 4 -10.6487 -20.7381 5.70808 
403148 400122 4 -10.1149 -21.0153 6.0032 
401767 400068 4 -10.6485 -21.3346 6.30143 
402313 400089 4 -11.0997 -19.9485 5.89808 
402312 400089 4 -10.6354 -19.7159 5.06798 
403591 400139 4 -10.0104 -19.0802 5.69759 
403592 400139 4 -9.99149 -18.9455 4.79036 
403496 400135 4 -11.5338 -21.928 6.92149 
403495 400135 4 -11.1778 -21.807 7.73882 
403150 400122 4 -10.6241 -22.1153 7.30293 
401766 400068 4 -10.6512 -21.8809 6.97659 
403149 400122 4 -10.4119 -21.6287 6.58024 
401765 400068 3 -10.4358 -22.3569 7.72842 
402314 400089 4 -11.6216 -20.2239 6.36888 
403590 400139 4 -9.84605 -19.3904 6.4609 
403589 400139 5 -9.5491 -19.7069 7.31526 
403151 400122 3 -10.6368 -22.7465 7.96092 
403494 400135 4 -10.6405 -21.7171 8.52361 
403152 400122 3 -10.5934 -22.577 8.75546 
401764 400068 3 -10.7524 -23.0078 8.05244 
403493 400135 3 -10.2193 -21.6998 9.3454 
401759 400068 3 -10.2657 -21.9607 8.96732 
401760 400068 5 -9.98557 -22.0234 8.24134 
401758 400068 3 -10.2555 -22.6872 9.26258 
403502 400135 5 -9.91391 -20.3589 9.27311 
401752 400068 4 -10.7058 -20.6346 9.1979 
401751 400068 3 -10.5336 -21.4041 9.4387 
401754 400068 4 -11.5007 -19.0636 9.4633 
401753 400068 4 -11.1168 -19.85 9.1569 
403508 400135 4 -10.0913 -18.8771 9.05822 
403510 400135 4 -10.3785 -17.3465 8.16484 
403509 400135 4 -10.1423 -18.1119 8.75064 
403226 400125 4 -9.68756 -11.0243 9.40031 
403225 400125 5 -9.2548 -11.2972 8.71409 
403492 400135 3 -10.4252 -22.2226 9.84227 
401757 400068 3 -10.1738 -22.788 10.0562 
403491 400135 3 -10.3424 -22.2779 10.5691 
401749 400068 3 -10.2069 -22.2028 10.5922 
403499 400135 3 -9.98885 -21.6385 10.8811 
401750 400068 3 -10.2418 -21.4956 10.2137 
403501 400135 3 -10.0838 -21.0235 9.68744 
403500 400135 3 -10.0266 -20.9013 10.5194 
403505 400135 3 -9.93708 -20.2111 10.8865 
403507 400135 3 -10.066 -19.615 9.54739 
403506 400135 3 -10.0382 -19.6193 10.3599 
402654 400103 4 -9.34455 -11.5513 10.2252 
402655 400103 4 -9.37204 -10.9774 10.9658 
402653 400103 5 -9.10709 -12.2139 9.51672 
403227 400125 4 -9.52599 -10.5276 10.2517 
403228 400125 4 -9.59461 -9.98614 11.0249 
403490 400135 3 -10.3768 -22.8858 11.0866 
403489 400135 3 -9.99365 -23.0034 11.7673 
401748 400068 3 -10.1994 -22.3891 11.3942 
403497 400135 5 -9.38456 -22.4977 11.823 
403498 400135 3 -9.58889 -21.7619 11.551 
403504 400135 3 -9.7836 -20.3559 11.6588 
403503 400135 3 -9.55051 -21.0496 11.9772 
401482 400057 4 -10.2793 -17.083 12.5523 
403719 400144 5 -9.25919 -16.7666 12.2655 
401534 400059 4 -10.2882 -14.437 12.0463 
402656 400103 4 -9.52448 -10.8251 11.8028 
403229 400125 3 -9.68339 -9.54731 11.8523 
403237 400125 5 -9.59372 -8.75701 11.8053 
403238 400125 3 -9.97242 -8.24366 12.2953 
403158 400122 4 -11.0464 -22.6494 12.706 
403538 400137 4 -9.29986 -22.2876 13.6149 
401978 400077 4 -9.14829 -21.5596 14.0904 
403537 400137 5 -8.86208 -22.1502 12.8827 
400054 400003 4 -9.58414 -20.0124 14.1274 
401977 400077 5 -8.85301 -21.3129 13.2765 
400053 400003 5 -9.12388 -20.6635 13.5986 
403720 400144 4 -9.69176 -16.1175 12.8536 
401481 400057 4 -10.2838 -16.4158 13.1499 
401480 400057 4 -10.2393 -16.1084 13.7683 
401533 400059 4 -10.1744 -14.2787 12.931 
403721 400144 4 -10.0285 -15.3001 13.4587 
401532 400059 4 -9.86904 -14.1416 13.7088 
403722 400144 4 -9.94368 -14.5318 13.9228 
403731 400144 5 -9.67838 -13.1836 14.1117 
401520 400059 4 -10.9071 -10.9338 13.4863 
402657 400103 3 -9.70935 -10.7946 12.7118 
402666 400103 3 -9.50413 -11.3691 13.9324 
402665 400103 5 -9.40925 -11.4263 13.144 
401519 400059 4 -10.5505 -11.3658 14.1131 
403230 400125 3 -9.88147 -9.73155 12.6511 
402658 400103 3 -9.7267 -10.1202 13.12 
402659 400103 3 -9.82447 -10.0117 13.893 
403232 400125 3 -10.0998 -9.30235 13.9982 
401269 400049 3 -9.92807 -7.71216 12.6953 
403231 400125 3 -10.092 -9.21603 13.2213 
403240 400125 3 -10.2904 -7.8776 13.5625 
401267 400049 3 -9.96109 -8.58214 13.7604 
403239 400125 3 -10.084 -8.45301 13.0514 
401268 400049 3 -9.73563 -8.42913 13.0147 
403540 400137 4 -10.1137 -22.3706 15.4271 
403539 400137 4 -9.69741 -22.2481 14.554 
401979 400077 4 -9.2607 -21.5628 14.8847 
401980 400077 4 -9.57662 -21.667 15.7625 
400056 400003 4 -10.0739 -18.9301 15.528 
400055 400003 4 -9.92455 -19.4465 14.7651 
401479 400057 3 -10.0281 -15.9088 14.7259 
401474 400057 5 -10.0461 -16.474 15.3039 
401531 400059 3 -9.7989 -13.969 14.5489 
403723 400144 3 -9.92197 -13.9202 14.332 
401478 400057 3 -9.96877 -15.1772 14.9955 
401530 400059 3 -10.0322 -14.4375 15.14 
403724 400144 3 -10.0204 -13.953 15.1424 
401477 400057 3 -9.93112 -15.0217 15.7594 
403732 400144 3 -9.71413 -12.5122 14.5375 
403725 400144 3 -10.0334 -13.3471 15.6559 
401526 400059 5 -9.51746 -13.3003 14.7838 
401525 400059 3 -9.72385 -12.9219 15.4744 
403733 400144 3 -9.81209 -12.6236 15.3272 
402671 400103 3 -9.50745 -12.0398 14.4125 
403737 400144 3 -9.54235 -11.7732 14.2375 
401517 400059 3 -10.0383 -12.1992 15.6251 
403734 400144 3 -9.73257 -11.9589 15.7772 
402672 400103 3 -9.78999 -11.8955 15.0831 
401518 400059 4 -10.3015 -11.7644 14.9257 
403739 400144 3 -9.58635 -11.2623 15.4805 
402673 400103 3 -9.95115 -11.2329 15.5196 
403738 400144 3 -9.41799 -11.1319 14.6836 
402667 400103 3 -9.79804 -10.7011 14.2769 
402668 400103 3 -9.96495 -10.628 15.074 
402661 400103 3 -10.2206 -9.29846 14.9508 
402669 400103 3 -10.0129 -9.93076 15.4039 
402660 400103 3 -9.90389 -9.3154 14.2433 
402663 400103 4 -11.2624 -8.16014 15.5688 
402662 400103 4 -10.8135 -8.74598 15.2158 
403241 400125 3 -10.1417 -7.94229 14.304 
403233 400125 3 -10.1079 -8.6945 14.585 
401261 400049 5 -9.82325 -8.04596 15.0684 
403234 400125 4 -10.3101 -8.88999 15.3889 
401262 400049 3 -9.95554 -7.99239 14.2743 
401253 400049 3 -10.2985 -7.70375 15.5848 
403541 400137 3 -10.2134 -22.3453 16.3369 
401989 400077 5 -9.77705 -22.3371 17.1748 
403549 400137 5 -9.9298 -22.9395 16.809 
401981 400077 3 -9.93576 -21.8099 16.6016 
403542 400137 3 -10.5306 -21.7616 16.8341 
401982 400077 3 -10.2238 -21.1576 16.9507 
401468 400057 4 -11.8072 -19.1311 16.5373 
400058 400003 3 -10.0507 -18.5534 16.914 
401467 400057 4 -11.2288 -18.3951 16.5218 
400057 400003 3 -10.0791 -18.2808 16.1578 
400065 400003 5 -9.82671 -17.5115 16.1006 
400066 400003 3 -9.8301 -17.0424 16.6996 
401466 400057 4 -10.7534 -17.588 16.6085 
401465 400057 3 -10.3052 -16.9579 16.6272 
401473 400057 3 -10.1884 -16.3897 16.0885 
400071 400003 3 -10.0722 -16.2568 16.5626 
401472 400057 3 -10.0135 -15.6215 16.3234 
401471 400057 3 -9.95669 -15.3737 17.0814 
401464 400057 3 -10.0406 -16.7375 17.3411 
400072 400003 3 -9.97836 -15.7648 17.1626 
401528 400059 3 -9.69997 -14.7611 16.4333 
401476 400057 3 -10.0053 -14.3121 16.0957 
401475 400057 3 -9.99239 -14.0759 16.8488 
401527 400059 3 -9.69627 -14.5259 17.1749 
401470 400057 3 -9.85655 -14.6513 17.3848 
401529 400059 3 -9.86084 -14.2216 15.8651 
401522 400059 3 -9.836 -13.7206 17.375 
401523 400059 3 -9.93123 -13.2045 16.8046 
403727 400144 3 -10.0532 -12.8212 16.8511 
401515 400059 3 -10.1741 -12.4736 16.9166 
403726 400144 3 -10.1618 -13.4477 16.4004 
401524 400059 3 -9.82143 -13.431 16.0375 
401516 400059 3 -10.2886 -11.9414 16.3276 
403735 400144 3 -9.8055 -12.1686 16.5272 
403736 400144 5 -9.79934 -11.5766 17.0869 
402674 400103 3 -10.0724 -11.2137 16.2951 
403741 400144 3 -9.8112 -10.7943 16.8301 
402675 400103 3 -9.90596 -10.5496 16.6867 
402670 400103 5 -9.7517 -9.93876 16.1601 
403742 400144 4 -10.0728 -10.1553 17.3061 
403740 400144 3 -9.64218 -10.7043 16.0436 
403236 400125 4 -10.8304 -8.50999 16.8882 
401252 400049 4 -10.3146 -7.93702 16.361 
401251 400049 4 -10.0766 -8.1577 17.1247 
403235 400125 4 -10.5343 -8.80706 16.0672 
403550 400137 3 -10.0883 -23.0349 17.6088 
401995 400077 3 -10.0504 -22.9864 18.3212 
403551 400137 3 -10.1859 -22.3293 18.0005 
403543 400137 3 -10.3572 -21.6957 17.6174 
401990 400077 3 -9.87898 -22.4037 17.9429 
401991 400077 3 -10.0836 -21.7391 18.2751 
403552 400137 3 -10.1628 -22.3313 18.8064 
401983 400077 3 -10.122 -21.1248 17.7792 
403544 400137 3 -10.4096 -21.0703 18.0388 
401984 400077 3 -10.1344 -20.3967 18.1136 
403545 400137 3 -10.2285 -20.9943 18.7603 
401985 400077 3 -10.2988 -20.2434 18.8707 
400060 400003 3 -10.3457 -18.3132 18.3318 
400059 400003 3 -10.2247 -18.0857 17.5578 
400067 400003 3 -9.91389 -17.3428 17.4385 
400069 400003 3 -10.0662 -17.0836 18.7863 
400068 400003 3 -9.93794 -16.8163 18.0427 
401463 400057 3 -9.9927 -15.9595 17.6066 
400073 400003 3 -10.036 -16.0006 17.9108 
400074 400003 3 -10.1302 -15.5413 18.5185 
401462 400057 3 -10.0046 -15.8113 18.3545 
401469 400057 5 -9.62401 -14.575 18.1158 
401461 400057 3 -9.83095 -15.1029 18.6804 
403729 400144 4 -10.8338 -13.0006 18.2799 
403728 400144 4 -10.3364 -12.9665 17.5739 
401514 400059 3 -10.2947 -12.3607 17.6904 
401521 400059 5 -9.6764 -13.4562 18.0965 
401513 400059 3 -10.0824 -12.7966 18.3076 
402676 400103 4 -9.98816 -10.443 17.5772 
402677 400103 4 -10.0868 -10.4039 18.3197 
403743 400144 4 -10.4587 -9.69546 18.0026 
403744 400144 4 -10.5516 -9.04675 18.4245 
401250 400049 4 -9.83391 -8.429 17.8411 
401249 400049 5 -9.42599 -9.06476 18.1044 
403557 400137 3 -10.1847 -22.9537 19.2651 
403558 400137 3 -10.2164 -22.8256 20.0635 
401996 400077 3 -10.3456 -23.0222 19.0503 
403553 400137 3 -9.92648 -21.5981 19.0965 
401992 400077 3 -10.2183 -21.6556 19.0199 
401997 400077 3 -10.2546 -22.2996 19.4221 
403554 400137 5 -9.62849 -21.6483 19.8018 
401998 400077 3 -10.3893 -22.1593 20.1738 
403559 400137 3 -10.0031 -22.1523 20.3709 
401993 400077 3 -10.2028 -20.9106 19.2903 
403546 400137 4 -10.5965 -20.4669 19.2276 
401994 400077 5 -10.0321 -20.9109 20.0755 
401987 400077 4 -10.9941 -18.9717 19.7205 
403547 400137 4 -10.9643 -19.9468 19.8854 
403548 400137 4 -11.4054 -19.3697 20.5274 
400063 400003 4 -10.6889 -18.842 20.4286 
401986 400077 4 -10.6571 -19.5928 19.2593 
401988 400077 4 -11.6796 -18.4348 20.0757 
400061 400003 3 -10.3169 -17.8452 18.9697 
400062 400003 4 -10.4686 -18.2416 19.7389 
400070 400003 5 -9.72907 -16.5112 19.2417 
400075 400003 3 -9.8986 -15.7194 19.2079 
400076 400003 4 -10.1665 -15.1843 20.0482 
401460 400057 4 -10.0772 -14.9813 19.4775 
401459 400057 4 -10.2492 -14.7355 20.3641 
403730 400144 4 -11.4794 -13.236 19.0446 
401512 400059 4 -10.0991 -12.4045 19.1967 
401511 400059 4 -10.1673 -12.1233 20.0968 
402678 400103 4 -10.3613 -10.199 19.197 
400630 400025 3 -10.111 -10.0977 20.0917 
400631 400025 3 -10.1466 -9.34185 20.1022 
400632 400025 3 -9.94462 -8.83509 19.5547 
403192 400123 3 -10.4215 -8.93142 20.1389 
403191 400123 3 -10.2306 -8.21391 20.3973 
400633 400025 3 -10.1481 -8.06961 19.652 
400641 400025 3 -10.3454 -7.79865 20.371 
403560 400137 4 -10.3653 -21.9204 21.0979 
403561 400137 4 -10.4346 -21.9769 21.9793 
401999 400077 3 -10.3629 -21.4423 20.5494 
402000 400077 4 -10.6909 -21.3691 21.3833 
400064 400003 4 -10.8185 -19.1731 21.1869 
400078 400003 4 -10.9257 -14.3729 21.3864 
400625 400025 5 -9.62484 -14.3371 20.7717 
400077 400003 4 -10.5142 -14.7469 20.73 
401458 400057 4 -10.2883 -14.3201 21.0598 
401457 400057 5 -9.59286 -13.9022 21.6383 
400494 400019 4 -10.7825 -13.5512 20.6103 
400493 400019 4 -10.8306 -12.8293 21.0496 
400626 400025 4 -9.94811 -13.391 20.6978 
403197 400123 4 -10.3794 -12.868 21.1827 
403198 400123 4 -10.3912 -13.7267 21.2689 
400627 400025 4 -9.90634 -12.3856 20.6496 
400492 400019 4 -10.8514 -12.0495 21.3343 
401510 400059 4 -10.018 -11.8862 20.9291 
403196 400123 4 -10.4904 -11.9298 21.0355 
400628 400025 4 -9.75555 -11.4399 20.692 
401509 400059 5 -9.62312 -11.6002 21.6303 
403195 400123 3 -10.388 -10.9236 21.0996 
400491 400019 3 -10.6572 -11.3046 21.7093 
400490 400019 3 -10.8419 -10.545 21.4258 
400488 400019 3 -11.1373 -9.26919 21.7053 
400489 400019 3 -10.9161 -9.99891 21.9776 