

units				lj
dimension			3
atom_style			full

# change neighbor list parameters to avoid dangerous builds
neighbor			2.0 bin
neigh_modify			delay 3
comm_modify 			vel yes

read_data			data_lmp.out
  orthogonal box = (-23.0464 -23.0464 -31.6138) to (23.0464 23.0464 31.6138)
  2 by 3 by 4 MPI processor grid
  reading atoms ...
  403744 atoms
  scanning bonds ...
  2 = max bonds/atom
  scanning angles ...
  3 = max angles/atom
  scanning impropers ...
  1 = max impropers/atom
  reading bonds ...
  4176 bonds
  reading angles ...
  5904 angles
  reading impropers ...
  1296 impropers
  3 = max # of 1-2 neighbors
  6 = max # of 1-3 neighbors
  15 = max # of 1-4 neighbors
  15 = max # of special neighbors

variable			rc equal 1.0

pair_style			dpd $T ${rc} 34387
pair_style			dpd 1.0 ${rc} 34387
pair_style			dpd 1.0 1 34387
pair_coeff	1	1	25	4.5	1
pair_coeff	1	2	165.362815626677	4.5	1
pair_coeff	1	3	116.862097154698	4.5	1
pair_coeff	1	4	146.155374914401	4.5	1
pair_coeff	1	5	7.1909203509054	4.5	1
pair_coeff	2	2	25	4.5	1
pair_coeff	2	3	35.9792833065638	4.5	1
pair_coeff	2	4	25.5695494065343	4.5	1
pair_coeff	2	5	129.458804641795	4.5	1
pair_coeff	3	3	25	4.5	1
pair_coeff	3	4	33.9335949525505	4.5	1
pair_coeff	3	5	76.0819248063004	4.5	1
pair_coeff	4	4	25	4.5	1
pair_coeff	4	5	126.398804395962	4.5	1
pair_coeff	5	5	25	4.5	1

# Parâmetros de lig, ângulo e impróprio tirados do Chen2018 e com o coarse-graining do Striolo
variable			k_lig_aro equal 1000
variable			k_lig_ali equal 100
variable			r0_aro equal 0.8*${rc}
variable			r0_aro equal 0.8*1
variable			r0_ali equal 0.9*${rc}
variable			r0_ali equal 0.9*1
bond_style 			harmonic
bond_coeff 			1 ${k_lig_aro} ${r0_aro} 	# B_asp-B_asp # spring const = 150 Kcal/mol/Ang² e equi.dist = 3 Angs
bond_coeff 			1 1000 ${r0_aro} 	
bond_coeff 			1 1000 0.8 	
bond_coeff 			2 ${k_lig_aro} ${r0_aro}   	# B_asp-Z_asp # spring const = 150 Kcal/mol/Ang² e equi.dist = 3 Angs
bond_coeff 			2 1000 ${r0_aro}   	
bond_coeff 			2 1000 0.8   	
bond_coeff 			3 ${k_lig_ali} ${r0_ali}	# B_asp-A_asp # spring const = 1.50 Kcal/mol/Ang² e equi.dist = 4.25 Angs
bond_coeff 			3 100 ${r0_ali}	
bond_coeff 			3 100 0.9	
bond_coeff			4 ${k_lig_ali} ${r0_ali}	# Z_asp-A_asp # spring const = 1.50 Kcal/mol/Ang² e equi.dist = 4.25 Angs
bond_coeff			4 100 ${r0_ali}	
bond_coeff			4 100 0.9	
bond_coeff			5 ${k_lig_ali} ${r0_ali}	# A_asp-A_asp # spring const = 1.50 Kcal/mol/Ang² e equi.dist = 4.25 Angs
bond_coeff			5 100 ${r0_ali}	
bond_coeff			5 100 0.9	

variable			k_ang equal 125
angle_style 			cosine/delta
angle_coeff 			1 ${k_ang} 120.0 		# K and theta0 , 300 Kcal/mol e 120 graus
angle_coeff 			1 125 120.0 		

variable			k_imp equal 5
improper_style 			cvff
improper_coeff	 		* ${k_imp} -1 2		# K d n, K = 12.5 Kcal/mol
improper_coeff	 		* 5 -1 2		

variable                        dt equal 0.002
mass				* 1.0
velocity			all create $T 12345 dist gaussian
velocity			all create 1.0 12345 dist gaussian
fix				1 all nve

variable                        total_timesteps equal 3000000
variable			equi_timesteps	equal round(${total_timesteps}*50/100) #10% of total time
variable			equi_timesteps	equal round(3000000*50/100) 
variable			thermo_equi	equal round(${equi_timesteps}/1000)
variable			thermo_equi	equal round(1500000/1000)
variable			thermo_prod	equal round(${total_timesteps}/1000)
variable			thermo_prod	equal round(3000000/1000)
variable                        dump equal round(${total_timesteps}/1)
variable                        dump equal round(3000000/1)

# Equilibration
timestep                        ${dt}
timestep                        0.002
thermo                          ${thermo_equi}
thermo                          1500
thermo_style                    custom step temp press pe ke etotal epair emol
run                             ${equi_timesteps}
run                             1500000
Neighbor list info ...
  update every 1 steps, delay 3 steps, check yes
  max neighbors/atom: 2000, page size: 100000
  master list distance cutoff = 3
  ghost atom cutoff = 3
  binsize = 1.5, bins = 31 31 43
  1 neighbor lists, perpetual/occasional/extra = 1 0 0
  (1) pair dpd, perpetual
      attributes: half, newton on
      pair build: half/bin/newton
      stencil: half/bin/3d/newton
      bin: standard
Per MPI rank memory allocation (min/avg/max) = 36.2 | 37.01 | 37.91 Mbytes
Step Temp Press PotEng KinEng TotEng E_pair E_mol 
       0            1    90.753476    19.322388    1.4999963    20.822385    17.561265    1.7611237 
    1500    1.2092127    30.298296    5.6012205    1.8138145     7.415035    5.4986376    0.1025829 
    3000    1.0620939      28.2136    5.2982204    1.5931368    6.8913572    5.1950241   0.10319627 
    4500    1.0437387    27.374478    5.1767405    1.5656042    6.7423446    5.0740487   0.10269179 
    6000    1.0360839    26.851103     5.103979     1.554122     6.658101    4.9992178   0.10476118 
    7500    1.0257301    26.404322    5.0575761    1.5385914    6.5961675    4.9512252   0.10635089 
    9000    1.0292363    26.240038    5.0154394    1.5438507    6.5592901    4.9086862   0.10675319 
   10500    1.0231878    25.966046    4.9865035    1.5347779    6.5212814    4.8801994   0.10630403 
   12000    1.0250982    25.842249     4.958124    1.5376435    6.4957675     4.850625   0.10749902 
   13500    1.0201524    25.691192    4.9380242    1.5302248     6.468249    4.8329153    0.1051089 
   15000    1.0197683     25.53457    4.9192725    1.5296486    6.4489211    4.8117611   0.10751147 
   16500    1.0206166    25.498184    4.9103274    1.5309211    6.4412484    4.8006792   0.10964813 
   18000    1.0177129    25.431259    4.8953218    1.5265655    6.4218873    4.7853789   0.10994288 
   19500    1.0166467    25.375444    4.8857552    1.5249662    6.4107215    4.7752577   0.11049758 
   21000    1.0181631    25.172807    4.8771843    1.5272409    6.4044252    4.7673991   0.10978519 
   22500     1.016884    25.223615    4.8627899    1.5253222    6.3881121    4.7551212   0.10766871 
   24000    1.0174749     25.18973    4.8573862    1.5262085    6.3835947     4.748146   0.10924024 
   25500    1.0173014    25.072809    4.8493677    1.5259483    6.3753161    4.7406693    0.1086985 
   27000    1.0151552     24.98324    4.8456798     1.522729    6.3684087     4.736603   0.10907682 
   28500    1.0160699    24.899107    4.8369545    1.5241011    6.3610556    4.7259286   0.11102587 
   30000    1.0144971    24.964662    4.8327153    1.5217419    6.3544571    4.7235936   0.10912164 
   31500    1.0162098    24.912719    4.8263488    1.5243109    6.3506597    4.7165844   0.10976442 
   33000    1.0136533     24.80763    4.8238712    1.5204762    6.3443474    4.7130383   0.11083293 
   34500    1.0141943    24.898035    4.8200547    1.5212876    6.3413423    4.7094975   0.11055719 
   36000      1.01149    24.766808    4.8185106    1.5172312    6.3357418    4.7077901   0.11072048 
   37500    1.0134025    24.795285    4.8149063       1.5201    6.3350063     4.705366   0.10954033 
   39000    1.0125046    24.764172     4.807927    1.5187531    6.3266801    4.6994662    0.1084608 
   40500    1.0098372    24.814888     4.808168     1.514752      6.32292    4.6971348   0.11103316 
   42000    1.0117623    24.674776    4.8055306    1.5176397    6.3231703    4.6946311   0.11089953 
   43500    1.0116516    24.762114    4.8000877    1.5174737    6.3175613    4.6901991   0.10988861 
   45000    1.0113934     24.69555    4.7962319    1.5170863    6.3133181    4.6870992    0.1091327 
   46500      1.01166    24.732218    4.7954496    1.5174863     6.312936    4.6856298   0.10981983 
   48000    1.0128315     24.64664    4.7942453    1.5192435    6.3134888    4.6834399    0.1108054 
   49500     1.011066    24.684776    4.7890638    1.5165952     6.305659    4.6789101   0.11015375 
   51000    1.0129867    24.648345    4.7855739    1.5194763    6.3050502    4.6762547   0.10931926 
   52500    1.0129843    24.545602    4.7827007    1.5194726    6.3021733    4.6712283   0.11147242 
   54000        1.013    24.520984    4.7777027    1.5194962    6.2971989    4.6696734   0.10802937 
   55500    1.0136967    24.621989    4.7781582    1.5205413    6.2986995    4.6676917   0.11046648 
   57000    1.0104464     24.57621    4.7783832    1.5156658    6.2940491    4.6662566   0.11212664 
   58500    1.0114291    24.504829     4.772176    1.5171399    6.2893158    4.6635743   0.10860167 
   60000    1.0104463    24.499821    4.7728933    1.5156657     6.288559    4.6623168   0.11057647 
   61500    1.0104598    24.466682    4.7726777     1.515686    6.2883637    4.6591735   0.11350418 
   63000    1.0111317    24.449711    4.7654261    1.5166937    6.2821198    4.6550325   0.11039358 
   64500    1.0141577    24.521148    4.7655739    1.5212328    6.2868066    4.6549762   0.11059768 
   66000    1.0111905    24.498432    4.7628009    1.5167819    6.2795829    4.6521934   0.11060753 
   67500    1.0098983    24.450346    4.7617933    1.5148436     6.276637    4.6514757   0.11031763 
   69000    1.0088859    24.426233    4.7587875    1.5133252    6.2721127    4.6486515   0.11013608 
   70500    1.0101065    24.418382    4.7548421    1.5151561    6.2699981    4.6464348    0.1084073 
   72000    1.0112148    24.413603    4.7539436    1.5168185    6.2707621     4.644508   0.10943559 
   73500    1.0091564      24.4374    4.7541941    1.5137308    6.2679249    4.6431518   0.11104229 
   75000    1.0126919    24.347405    4.7536991    1.5190341    6.2727331     4.642845   0.11085407 
   76500    1.0112606    24.450702    4.7496253    1.5168872    6.2665125    4.6403534   0.10927191 
   78000    1.0106473    24.365862    4.7500266    1.5159672    6.2659938    4.6401331   0.10989346 
   79500    1.0106959    24.368034    4.7497987    1.5160401    6.2658389    4.6389206   0.11087813 
   81000    1.0086689    24.427941    4.7480881    1.5129995    6.2610877    4.6366899   0.11139824 
   82500    1.0093287    24.342439    4.7440654    1.5139893    6.2580547    4.6347103   0.10935512 
   84000    1.0082588    24.362872    4.7438945    1.5123845     6.256279    4.6338408   0.11005367 
   85500    1.0084326    24.349327    4.7454846    1.5126451    6.2581297    4.6348324   0.11065218 
   87000     1.008944    24.308757    4.7476592    1.5134123    6.2610715     4.635382   0.11227727 
   88500    1.0069117     24.32571    4.7441503    1.5103638    6.2545141    4.6350319   0.10911844 
   90000    1.0082987    24.369677    4.7427534    1.5124443    6.2551977    4.6328393   0.10991409 
   91500    1.0079055    24.297599     4.746301    1.5118546    6.2581555    4.6343892   0.11191174 
   93000    1.0066755    24.266466    4.7440856    1.5100095    6.2540951      4.63451   0.10957558 
   94500     1.005841    24.342568    4.7400331    1.5087577    6.2487908    4.6312952   0.10873795 
   96000    1.0059619    24.338766    4.7416259    1.5089392     6.250565    4.6309523   0.11067359 
   97500    1.0072768    24.329492    4.7433825    1.5109114    6.2542939    4.6328022   0.11058032 
   99000    1.0073499    24.286138    4.7396689     1.511021      6.25069    4.6296825   0.10998642 
  100500    1.0050961     24.31885    4.7407177    1.5076404     6.248358    4.6289018   0.11181593 
  102000    1.0052239    24.181075    4.7414117    1.5078321    6.2492439    4.6306217   0.11079009 
  103500    1.0046175    24.341077    4.7359726    1.5069226    6.2428952    4.6262836   0.10968903 
  105000    1.0056817    24.279039    4.7351325    1.5085188    6.2436514    4.6272123   0.10792028 
  106500    1.0041936    24.290587    4.7384383    1.5062867     6.244725     4.627555    0.1108833 
  108000    1.0071766    24.302411    4.7332473    1.5107612    6.2440085     4.624459   0.10878828 
  109500    1.0066749    24.302904    4.7359816    1.5100086    6.2459902    4.6268276   0.10915403 
  111000     1.007033    24.265374    4.7336001    1.5105458    6.2441459      4.62471   0.10889006 
  112500    1.0045913     24.29703    4.7316593    1.5068832    6.2385426     4.622955   0.10870432 
  114000    1.0093705    24.237778    4.7306752    1.5140521    6.2447272    4.6215772     0.109098 
  115500    1.0058074    24.233672    4.7332002    1.5087074    6.2419076    4.6224678   0.11073239 
  117000    1.0058487    24.244307    4.7320776    1.5087693    6.2408469     4.622906   0.10917159 
  118500    1.0035544    24.169606    4.7295309    1.5053279    6.2348588    4.6200184   0.10951249 
  120000    1.0065788    24.192101    4.7277641    1.5098644    6.2376285    4.6180929   0.10967121 
  121500     1.006032    24.193576    4.7291264    1.5090442    6.2381706    4.6187009   0.11042546 
  123000     1.004779    24.280559    4.7288102    1.5071647    6.2359749    4.6163267   0.11248354 
  124500    1.0073081    24.222195    4.7301956    1.5109584     6.241154    4.6192713   0.11092427 
  126000    1.0050575    24.256553    4.7277754    1.5075825    6.2353579    4.6159297   0.11184564 
  127500    1.0050554    24.195063    4.7270537    1.5075794     6.234633    4.6173956   0.10965804 
  129000    1.0041337     24.23796    4.7264276    1.5061968    6.2326244    4.6179801   0.10844752 
  130500    1.0051717    24.220841    4.7247069    1.5077537    6.2324606    4.6160554   0.10865145 
  132000     1.003454    24.149244    4.7254935    1.5051772    6.2306707    4.6166368   0.10885668 
  133500    1.0012206    24.251377    4.7263964    1.5018272    6.2282237    4.6169749   0.10942159 
  135000    1.0025105    24.223825    4.7258378    1.5037621    6.2295999    4.6154796   0.11035821 
  136500    1.0044425    24.219077    4.7271199      1.50666    6.2337798    4.6157339   0.11138598 
  138000    1.0039588    24.226475    4.7244591    1.5059345    6.2303936    4.6150003   0.10945881 
  139500    1.0030588    24.154655    4.7261176    1.5045845    6.2307021    4.6173833   0.10873437 
  141000     1.000706    24.277252    4.7251352    1.5010552    6.2261904    4.6152553   0.10987986 
  142500    1.0031555    24.168666    4.7267472    1.5047295    6.2314767    4.6159173   0.11082984 
  144000    1.0037882    24.190761    4.7267589    1.5056785    6.2324374    4.6168532   0.10990568 
  145500     1.003733    24.178781    4.7298496    1.5055957    6.2354454    4.6175009   0.11234873 
  147000    1.0026398    24.179384    4.7283959    1.5039559    6.2323519    4.6165815   0.11181445 
  148500    1.0037732    24.178179    4.7246522    1.5056561    6.2303083    4.6158492   0.10880298 
  150000    1.0011828    24.156591    4.7276226    1.5017704     6.229393    4.6171826   0.11044003 
  151500       1.0013    24.102228    4.7239105    1.5019462    6.2258567    4.6155006   0.10840988 
  153000    1.0027285    24.191547    4.7236861     1.504089    6.2277751    4.6154084   0.10827772 
  154500    1.0006213    24.160449     4.726107    1.5009282    6.2270352    4.6175175   0.10858954 
  156000    1.0018284    24.228302    4.7285892    1.5027388     6.231328    4.6165855   0.11200368 
  157500    1.0030962    24.133456    4.7223675    1.5046406     6.227008    4.6132008   0.10916663 
  159000    1.0020819    24.206367    4.7219812    1.5031191    6.2251002    4.6129504   0.10903075 
  160500    1.0020269    24.211902    4.7267526    1.5030367    6.2297893    4.6148559    0.1118967 
  162000    1.0026493    24.162867    4.7258095    1.5039703    6.2297798    4.6147946    0.1110149 
  163500    1.0018689    24.124844    4.7229016    1.5027996    6.2257013    4.6136829   0.10921877 
  165000    1.0027122    24.209669    4.7265152    1.5040645    6.2305797    4.6143611   0.11215405 
  166500    1.0009011    24.187877    4.7225169    1.5013479    6.2238648    4.6138295   0.10868735 
  168000    1.0052764    24.128964    4.7237578    1.5079108    6.2316687    4.6135589   0.11019897 
  169500    1.0011197    24.111567    4.7240372    1.5016758     6.225713    4.6147557   0.10928148 
  171000    1.0007793    24.196201    4.7212783    1.5011653    6.2224436    4.6113035   0.10997487 
  172500    1.0028535    24.111829    4.7199613    1.5042765    6.2242377     4.610574   0.10938723 
  174000    1.0014277    24.227383    4.7241991    1.5021378    6.2263369     4.613352   0.11084707 
  175500     1.004026    24.159801    4.7223199    1.5060352    6.2283551    4.6122015   0.11011838 
  177000    1.0021373     24.15978    4.7191202    1.5032022    6.2223224     4.611563   0.10755718 
  178500    1.0028366    24.162369    4.7218495    1.5042512    6.2261007     4.613264   0.10858549 
  180000    1.0010864     24.12044    4.7212218     1.501626    6.2228477    4.6105223   0.11069953 
  181500    1.0005044    24.188773    4.7219131    1.5007529    6.2226659    4.6105045   0.11140859 
  183000    1.0030901    24.089411    4.7219281    1.5046314    6.2265595    4.6117977   0.11013045 
  184500    1.0044468    24.066366    4.7235773    1.5066665    6.2302438    4.6127546   0.11082273 
  186000    1.0019129    24.228614    4.7200673    1.5028656    6.2229329    4.6109594   0.10910792 
  187500    1.0013524    24.207375    4.7225523    1.5020249    6.2245771    4.6116589   0.11089337 
  189000    1.0030429    24.183528    4.7198924    1.5045607     6.224453    4.6117145   0.10817785 
  190500    1.0027818    24.046766     4.720182     1.504169     6.224351    4.6107111   0.10947089 
  192000    1.0013514    24.185418     4.719945    1.5020233    6.2219684    4.6106111   0.10933394 
  193500    1.0019511    24.117583    4.7185218     1.502923    6.2214448    4.6098366   0.10868525 
  195000     1.001876     24.06747     4.722884    1.5028103    6.2256943    4.6104619   0.11242211 
  196500    1.0005508    24.208327    4.7191218    1.5008225    6.2199444    4.6098518   0.10926997 
  198000     1.001931    24.193237     4.718596    1.5028928    6.2214887    4.6093327   0.10926329 
  199500    1.0010542     24.14047    4.7228231    1.5015775    6.2244007    4.6096231   0.11320002 
  201000    1.0030782    24.184693    4.7237107    1.5046135    6.2283242    4.6118109   0.11189979 
  202500    1.0030333    24.184884    4.7192552    1.5045462    6.2238014    4.6092757   0.10997943 
  204000    1.0038472    24.125772    4.7213322    1.5057671    6.2270993    4.6109645   0.11036769 
  205500    1.0009716    24.101305    4.7206729    1.5014536    6.2221265    4.6101462   0.11052668 
  207000    1.0001288    24.180914    4.7205767    1.5001894    6.2207661    4.6107898   0.10978684 
  208500    1.0033433    24.120602     4.721823    1.5050112    6.2268343    4.6106069   0.11121611 
  210000    1.0033963    24.137942    4.7228994    1.5050907    6.2279901    4.6109986    0.1119008 
  211500    1.0009808    24.220732    4.7231624    1.5014675      6.22463    4.6129241   0.11023828 
  213000    1.0024972     24.17486    4.7201475     1.503742    6.2238896    4.6112718   0.10887577 
  214500    1.0017567    24.142452    4.7227822    1.5026313    6.2254135    4.6118665    0.1109157 
  216000      1.00182    24.149592    4.7209843    1.5027263    6.2237106    4.6112105   0.10977373 
  217500    1.0006026      24.1817    4.7216889    1.5009002    6.2225892    4.6105407    0.1111482 
  219000    1.0028039    24.213212    4.7187546    1.5042021    6.2229566    4.6096537   0.10910086 
  220500    1.0018966      24.1541    4.7240961    1.5028412    6.2269373    4.6128689    0.1112272 
  222000   0.99950239    24.159499    4.7223923    1.4992499    6.2216422    4.6118869   0.11050536 
  223500    1.0013931    24.138213    4.7197186    1.5020859    6.2218045    4.6107666   0.10895196 
  225000    1.0016489    24.188642    4.7215241    1.5024696    6.2239937    4.6094577   0.11206638 
  226500    1.0014401    24.178804    4.7209169    1.5021564    6.2230734    4.6106131   0.11030385 
  228000    1.0001465     24.12672    4.7200719     1.500216     6.220288    4.6120668    0.1080051 
  229500    1.0020266    24.166662    4.7194809    1.5030363    6.2225172    4.6095956   0.10988533 
  231000    1.0002229    24.158228    4.7213106    1.5003307    6.2216413     4.611159   0.11015162 
  232500    0.9989785    24.112823    4.7206494     1.498464    6.2191135    4.6111101   0.10953932 
  234000    1.0018777    24.130939    4.7181985    1.5028128    6.2210113    4.6093767   0.10882179 
  235500    1.0005648    24.085083    4.7245607    1.5008435    6.2254042    4.6139438   0.11061684 
  237000    1.0009333    24.160847    4.7196346    1.5013962    6.2210309    4.6108391    0.1087955 
  238500    1.0008149    24.142945    4.7211497    1.5012186    6.2223683    4.6114055   0.10974429 
  240000   0.99957489    24.140596    4.7197513    1.4993586    6.2191099      4.60985   0.10990132 
  241500    1.0020797    24.176782    4.7177724    1.5031158    6.2208881    4.6104176   0.10735474 
  243000    1.0015005    24.185617    4.7218714     1.502247    6.2241185    4.6117286    0.1101428 
  244500    1.0025714    24.119965    4.7209195    1.5038534    6.2247729    4.6112533   0.10966623 
  246000    1.0017886    24.061996    4.7224222    1.5026792    6.2251014    4.6118417   0.11058042 
  247500   0.99953812    24.116734    4.7201408    1.4993035    6.2194443    4.6105019    0.1096389 
  249000    1.0038641    24.176361     4.718413    1.5057925    6.2242054    4.6090512    0.1093618 
  250500    1.0030867    24.110108    4.7221151    1.5046264    6.2267415    4.6109686   0.11114651 
  252000   0.99840795    24.040384    4.7221124    1.4976082    6.2197206    4.6119213   0.11019104 
  253500    1.0044367     24.06219    4.7223489    1.5066513    6.2290001    4.6104823   0.11186653 
  255000    1.0008003    24.124489     4.723535    1.5011967    6.2247318    4.6115314    0.1120036 
  256500    1.0011932    24.139561    4.7198615    1.5017861    6.2216477    4.6100189   0.10984263 
  258000    1.0003154    24.217131     4.719076    1.5004694    6.2195454    4.6093541   0.10972187 
  259500    1.0006892    24.147912    4.7214726      1.50103    6.2225026    4.6107568   0.11071573 
  261000    1.0027794    24.195559    4.7219421    1.5041654    6.2261075     4.611384   0.11055811 
  262500    1.0008979    24.164413    4.7225856    1.5013432    6.2239288    4.6100823   0.11250333 
  264000    1.0012739    24.089191    4.7197198    1.5019071    6.2216269    4.6077248   0.11199509 
  265500    1.0017507    24.065608    4.7192494    1.5026224    6.2218718    4.6100699   0.10917951 
  267000    1.0005521    24.124548    4.7179591    1.5008244    6.2187835    4.6088743   0.10908481 
  268500   0.99983544    24.240879    4.7180196    1.4997494     6.217769    4.6088494    0.1091702 
  270000    1.0008966    24.178877     4.720822    1.5013412    6.2221631    4.6099922   0.11082982 
  271500    1.0005677       24.149    4.7227248    1.5008479    6.2235727    4.6099897   0.11273514 
  273000    1.0007493    24.182239    4.7192216    1.5011202    6.2203418    4.6098858   0.10933582 
  274500     1.000568    24.098676    4.7198543    1.5008483    6.2207026    4.6109742   0.10888012 
  276000    1.0013981    24.141056    4.7198618    1.5020934    6.2219552    4.6091692   0.11069266 
  277500    1.0014024    24.135353    4.7191505    1.5020998    6.2212503    4.6089532   0.11019731 
  279000    1.0004165    24.209355    4.7178335    1.5006211    6.2184546    4.6068891   0.11094444 
  280500    1.0018338    24.138148    4.7179921    1.5027469     6.220739    4.6086408   0.10935129 
  282000    1.0019499    24.142797    4.7204657    1.5029211    6.2233867    4.6105474   0.10991826 
  283500   0.99950394    24.193186    4.7171182    1.4992522    6.2163704    4.6090545   0.10806373 
  285000    1.0009655    24.094217    4.7224099    1.5014446    6.2238545    4.6115102   0.11089966 
  286500    1.0022744     24.23159    4.7204382    1.5034079    6.2238461    4.6096403   0.11079792 
  288000     1.002353    24.130341    4.7189461    1.5035257    6.2224718    4.6096452   0.10930084 
  289500     1.000025    24.142894    4.7193138    1.5000338    6.2193476    4.6103819   0.10893186 
  291000    1.0006775    24.137581     4.718876    1.5010125    6.2198884    4.6088981   0.10997784 
  292500    1.0008619    24.071279    4.7173258    1.5012891    6.2186149    4.6098258   0.10750001 
  294000    1.0020444    24.121828    4.7212648    1.5030628    6.2243277      4.60991    0.1113548 
  295500    1.0003136    24.174582    4.7175785    1.5004666    6.2180451    4.6087575   0.10882104 
  297000    1.0006168    24.147877    4.7198571    1.5009214    6.2207785    4.6099062   0.10995086 
  298500   0.99931218    24.111842    4.7211127    1.4989646    6.2200772    4.6101417   0.11097096 
  300000    1.0009402    24.131109    4.7209566    1.5014066    6.2223631    4.6116211   0.10933545 
  301500   0.99953393     24.17393    4.7166059    1.4992972    6.2159031    4.6085554   0.10805046 
  303000    1.0027404    24.127176    4.7173821    1.5041068    6.2214889    4.6081777   0.10920439 
  304500    1.0008803    24.120309    4.7231145    1.5013167    6.2244313    4.6120368   0.11107773 
  306000    1.0018248    24.119143    4.7220258    1.5027336    6.2247594    4.6100969   0.11192889 
  307500    1.0007663    24.148735    4.7222629    1.5011457    6.2234086        4.612   0.11026288 
  309000    1.0014286    24.187149    4.7187373    1.5021392    6.2208765    4.6090584   0.10967886 
  310500    1.0013641    24.135649    4.7199141    1.5020424    6.2219564    4.6103116   0.10960247 
  312000    1.0006368    24.142451    4.7201072    1.5009515    6.2210587    4.6091597   0.11094746 
  313500    1.0001444    24.097924    4.7202251    1.5002129    6.2204379    4.6100062   0.11021889 
  315000    1.0001012    24.134077    4.7189748    1.5001482     6.219123     4.608682   0.11029277 
  316500    1.0020638    24.160343    4.7191825     1.503092    6.2222745     4.608886   0.11029653 
  318000     1.002663     24.12004    4.7193883    1.5039908    6.2233791    4.6096738   0.10971453 
  319500    1.0002922    24.095627    4.7171202    1.5004345    6.2175548    4.6084594   0.10866082 
  321000    1.0009461     24.08196    4.7207335    1.5014154    6.2221489    4.6108387   0.10989482 
  322500    1.0004132    24.154367    4.7175296    1.5006162    6.2181458    4.6084719   0.10905768 
  324000    1.0009497    24.121316    4.7207335    1.5014209    6.2221544    4.6097303   0.11100325 
  325500   0.99967238    24.145548    4.7199111    1.4995049    6.2194159    4.6090757   0.11083536 
  327000    1.0024691    24.135802    4.7178698    1.5036999    6.2215697    4.6084546    0.1094152 
  328500    1.0018379    24.211012    4.7182708    1.5027531    6.2210239    4.6077827   0.11048804 
  330000    1.0020869     24.15702     4.722628    1.5031267    6.2257546    4.6108995   0.11172845 
  331500   0.99995544    24.064906    4.7187803    1.4999294    6.2187098    4.6087361   0.11004419 
  333000    1.0024853    24.123405    4.7205528    1.5037242     6.224277    4.6093529   0.11119989 
  334500    1.0003938    24.114736    4.7192655     1.500587    6.2198525    4.6079966   0.11126896 
  336000    1.0018159    24.137077      4.72093    1.5027201    6.2236502      4.60933   0.11160002 
  337500    1.0001989    24.142862    4.7201156    1.5002947    6.2204103    4.6101882    0.1099274 
  339000    1.0009765    24.162523    4.7182492     1.501461    6.2197102    4.6099386   0.10831066 
  340500    1.0023069    24.092328     4.718001    1.5034566    6.2214575    4.6076114   0.11038956 
  342000    1.0028769    24.214937    4.7192582    1.5043116    6.2235698    4.6088807   0.11037755 
  343500    0.9989967     24.13159    4.7200871    1.4984913    6.2185784     4.610176   0.10991102 
  345000   0.99988564    24.065491    4.7213535    1.4998247    6.2211783    4.6119707   0.10938282 
  346500    1.0031603    24.155762    4.7199689    1.5047367    6.2247056    4.6086068   0.11136211 
  348000    1.0008594    24.149447    4.7201037    1.5012854     6.221389    4.6088137      0.11129 
  349500    1.0009911    24.144358    4.7208365    1.5014829    6.2223194    4.6102802   0.11055629 
  351000    0.9996809    24.100143    4.7199463    1.4995176     6.219464    4.6101064   0.10983997 
  352500   0.99837017    24.064876    4.7175263    1.4975515    6.2150778    4.6072975   0.11022879 
  354000   0.99983581    24.062056    4.7217796      1.49975    6.2215296    4.6108886   0.11089102 
  355500    0.9996338    24.118865    4.7200434     1.499447    6.2194904    4.6101403   0.10990311 
  357000   0.99977872    24.096037    4.7183995    1.4996644    6.2180638    4.6096425   0.10875698 
  358500    1.0011123    24.070226    4.7182334    1.5016648    6.2198982    4.6089621   0.10927134 
  360000   0.99980122    24.133562    4.7205678    1.4996981    6.2202659    4.6099504   0.11061743 
  361500     1.000285    24.142352    4.7197039    1.5004238    6.2201277    4.6093199   0.11038398 
  363000    1.0022946    24.161967    4.7187495    1.5034381    6.2221877    4.6084599   0.11028966 
  364500    1.0004386    24.152215    4.7213546    1.5006542    6.2220088    4.6098926   0.11146208 
  366000   0.99922887    24.137565    4.7201705    1.4988396    6.2190101     4.610044   0.11012641 
  367500    1.0002151     24.10652    4.7156489    1.5003189    6.2159678    4.6083003   0.10734858 
  369000    1.0000254    24.082709    4.7184011    1.5000344    6.2184355     4.608809   0.10959208 
  370500   0.99809959    24.105339     4.718638    1.4971457    6.2157836    4.6092973   0.10934069 
  372000     1.000832    24.176307    4.7190538    1.5012443    6.2202981    4.6092537   0.10980018 
  373500    1.0007158     24.15077    4.7228072      1.50107    6.2238772    4.6109513   0.11185591 
  375000    1.0005889    24.121015     4.721463    1.5008796    6.2223427    4.6101518   0.11131125 
  376500    1.0007046    24.201538     4.719805    1.5010532    6.2208582    4.6090434   0.11076159 
  378000    1.0016941    24.168765    4.7184881    1.5025375    6.2210256    4.6098509    0.1086372 
  379500   0.99873438    24.148293    4.7214635    1.4980979    6.2195614    4.6105568   0.11090677 
  381000    1.0003509    24.101298    4.7188918    1.5005226    6.2194143    4.6090634   0.10982838 
  382500   0.99938367     24.11061       4.7191    1.4990718    6.2181718     4.608609   0.11049109 
  384000    1.0024383    24.081054    4.7202403    1.5036537     6.223894    4.6094075   0.11083276 
  385500   0.99891915    24.152688    4.7203392     1.498375    6.2187142    4.6110972   0.10924196 
  387000   0.99978481    24.214232    4.7188152    1.4996735    6.2184887    4.6087273   0.11008791 
  388500    1.0021361    24.139841    4.7228955    1.5032004    6.2260959    4.6113753   0.11152025 
  390000    1.0000138    24.082673    4.7190983     1.500017    6.2191153    4.6077046   0.11139375 
  391500    1.0008433    24.102441    4.7191338    1.5012612    6.2203951    4.6085144   0.11061945 
  393000      1.00076    24.167254    4.7183591    1.5011362    6.2194953    4.6085939   0.10976523 
  394500    1.0015625    24.071856     4.718005    1.5023401     6.220345    4.6082949    0.1097101 
  396000   0.99999732    24.095802    4.7181043    1.4999923    6.2180966    4.6088458   0.10925854 
  397500    1.0012256    24.215236    4.7189359    1.5018347    6.2207706    4.6086517   0.11028416 
  399000    1.0017765    24.099838    4.7178617    1.5026611    6.2205228    4.6093342   0.10852753 
  400500    1.0009386    24.127863    4.7206572    1.5014042    6.2220613    4.6093827   0.11127446 
  402000     1.000437    24.135364    4.7168101    1.5006517    6.2174618    4.6078081   0.10900201 
  403500   0.99912258    24.110294    4.7171285    1.4986802    6.2158087    4.6084514   0.10867715 
  405000    1.0043038    24.119161    4.7199526     1.506452    6.2264045    4.6090692   0.11088336 
  406500    1.0015551    24.102725    4.7211611     1.502329    6.2234901    4.6112317   0.10992939 
  408000    1.0003614    24.087028    4.7192163    1.5005384    6.2197548    4.6096195   0.10959683 
  409500    1.0003399    24.160388    4.7177136    1.5005062    6.2182198     4.608168   0.10954566 
  411000    1.0020116    24.120039    4.7175979    1.5030137    6.2206116    4.6076315    0.1099664 
  412500    0.9997034    24.149508    4.7167617    1.4995514    6.2163131    4.6078626   0.10889904 
  414000    0.9990572    24.124427    4.7181505    1.4985821    6.2167326    4.6073589   0.11079164 
  415500   0.99959443    24.057797    4.7185455    1.4993879    6.2179334    4.6093661   0.10917939 
  417000    1.0013316    24.201457    4.7193426    1.5019938    6.2213363    4.6088029   0.11053967 
  418500    1.0027134    24.090844    4.7184675    1.5040664    6.2225339    4.6084013   0.11006618 
  420000    1.0019998    24.101413    4.7200904    1.5029959    6.2230864    4.6089227   0.11116772 
  421500     1.002212      24.1522    4.7193807    1.5033142     6.222695    4.6090595   0.11032122 
  423000     1.001105    24.116848    4.7168102    1.5016537    6.2184639    4.6078478    0.1089624 
  424500    1.0003013    24.090388     4.719689    1.5004483    6.2201373    4.6111686   0.10852045 
  426000    1.0030835    24.098472    4.7164258    1.5046215    6.2210473    4.6072744   0.10915139 
  427500    1.0012126    24.097895     4.716018    1.5018151    6.2178331    4.6074005   0.10861754 
  429000    1.0010543    24.001181    4.7212203    1.5015777    6.2227979    4.6103595   0.11086082 
  430500    1.0001541    24.076655    4.7205659    1.5002275    6.2207934    4.6112372   0.10932868 
  432000    1.0011269    24.151289    4.7183277    1.5016867    6.2200144    4.6080644   0.11026328 
  433500    1.0007778    24.164983    4.7178686     1.501163    6.2190316    4.6077716     0.110097 
  435000   0.99983408    24.085576    4.7204596    1.4997474     6.220207      4.61112   0.10933956 
  436500    1.0017242    24.145167    4.7164529    1.5025826    6.2190355    4.6077903   0.10866258 
  438000    1.0001113    24.096876    4.7210074    1.5001632    6.2211707    4.6106058    0.1104016 
  439500   0.99992791    24.129065    4.7184694    1.4998882    6.2183576    4.6083554     0.110114 
  441000     1.001751    24.097419    4.7208992    1.5026228    6.2235221    4.6105061   0.11039317 
  442500   0.99955019    24.098386    4.7185629    1.4993216    6.2178845    4.6082847   0.11027824 
  444000   0.99982595     24.11254    4.7227698    1.4997352     6.222505     4.611037   0.11173284 
  445500      1.00161    24.138077    4.7206018    1.5024113    6.2230131    4.6107835   0.10981836 
  447000    1.0016311    24.077274    4.7208998    1.5024429    6.2233427    4.6102211   0.11067862 
  448500   0.99839193    24.145058    4.7183955    1.4975842    6.2159797    4.6101852   0.10821026 
  450000    1.0017506    24.100923     4.719713    1.5026221    6.2223351    4.6108568   0.10885626 
  451500   0.99979142    24.033301     4.720525    1.4996834    6.2202084    4.6092836   0.11124144 
  453000   0.99807289    24.110031    4.7181039    1.4971056    6.2152095    4.6096756   0.10842829 
  454500    1.0025329     24.13203    4.7165295    1.5037956    6.2203251    4.6072629   0.10926657 
  456000   0.99853922    24.140873    4.7194026    1.4978051    6.2172077     4.608364   0.11103852 
  457500   0.99958722    24.055954    4.7195685    1.4993771    6.2189456    4.6082592   0.11130923 
  459000    1.0029034    24.139356    4.7176778    1.5043513    6.2220291    4.6092194   0.10845838 
  460500   0.99966684    24.124482    4.7198048    1.4994966    6.2193013    4.6087962    0.1110086 
  462000   0.99851229     24.08692    4.7204725    1.4977647    6.2182372    4.6099921    0.1104804 
  463500    0.9996574    24.138625    4.7176234    1.4994824    6.2171058    4.6083443   0.10927915 
  465000    0.9997254    24.221002    4.7228474    1.4995844    6.2224318    4.6095085   0.11333883 
  466500   0.99987668    24.124397     4.721727    1.4998113    6.2215383    4.6080973   0.11362969 
  468000    1.0007362    24.075877    4.7183738    1.5011005    6.2194743    4.6076655   0.11070821 
  469500    1.0017963    24.063837    4.7194886    1.5026908    6.2221794     4.610576   0.10891265 
  471000   0.99830877    24.213337    4.7199074    1.4974595    6.2173669    4.6091549   0.11075252 
  472500    1.0020116    24.016629    4.7188902    1.5030136    6.2219038    4.6078778   0.11101244 
  474000    1.0006076    24.057614    4.7195301    1.5009076    6.2204378    4.6101723   0.10935781 
  475500   0.99973565    24.143842    4.7178181    1.4995998    6.2174178    4.6093412   0.10847686 
  477000    1.0006876    24.159249    4.7152416    1.5010277    6.2162692    4.6059773   0.10926432 
  478500    1.0000799    24.089776    4.7205929    1.5001162    6.2207091    4.6094241   0.11116879 
  480000    1.0034167    24.124052    4.7148262    1.5051213    6.2199475    4.6085852   0.10624098 
  481500   0.99937957    24.109559    4.7196565    1.4990656    6.2187221    4.6094106   0.11024591 
  483000   0.99977469    24.197348    4.7193308    1.4996583    6.2189891    4.6101488   0.10918196 
  484500    1.0001019      24.1194    4.7192555    1.5001492    6.2194047     4.609092    0.1101635 
  486000    1.0026774    24.177702    4.7193874    1.5040124    6.2233998     4.609029   0.11035845 
  487500    1.0014307    24.125622    4.7183241    1.5021423    6.2204664    4.6063718   0.11195224 
  489000     1.000393    24.140943    4.7176043    1.5005858      6.21819    4.6078523   0.10975198 
  490500    1.0000253      24.1099    4.7191032    1.5000342    6.2191373    4.6079211   0.11118207 
  492000    1.0003941    24.111628    4.7197662    1.5005875    6.2203537    4.6102381    0.1095281 
  493500    1.0021042    24.106199    4.7190149    1.5031525    6.2221674    4.6093517   0.10966328 
  495000    1.0027671    24.107788    4.7162935     1.504147    6.2204404    4.6067024   0.10959108 
  496500    1.0016948     24.09632    4.7176558    1.5025385    6.2201943    4.6074826   0.11017322 
  498000    1.0012616    24.071059    4.7179286    1.5018887    6.2198172    4.6074092   0.11051937 
  499500    1.0014335    24.119911    4.7216932    1.5021465    6.2238397    4.6096517   0.11204148 
  501000   0.99821558    24.113949    4.7203566    1.4973197    6.2176762    4.6089162   0.11144037 
  502500   0.99885898    24.213993    4.7198505    1.4982848    6.2181353    4.6090116   0.11083892 
  504000    1.0009306    24.106045    4.7200811    1.5013922    6.2214733    4.6090978   0.11098327 
  505500   0.99895955    24.123332    4.7185368    1.4984356    6.2169724     4.607632   0.11090474 
  507000    1.0021905    24.137126    4.7157829     1.503282    6.2190649    4.6064194    0.1093635 
  508500    0.9999263    24.121157    4.7174464    1.4998857    6.2173321    4.6068449   0.11060144 
  510000   0.99977865    24.163399    4.7205899    1.4996643    6.2202542    4.6089656   0.11162426 
  511500   0.99937507    24.101844     4.720291    1.4990589    6.2193499    4.6092883   0.11100275 
  513000    1.0010174     24.15854    4.7198231    1.5015225    6.2213456    4.6078349   0.11198819 
  514500   0.99967879    24.065648    4.7166625    1.4995145    6.2161769    4.6066334   0.11002909 
  516000   0.99893652    24.045511    4.7184681    1.4984011    6.2168692    4.6081316   0.11033658 
  517500   0.99833336    24.058674    4.7178304    1.4974963    6.2153268     4.606616   0.11121441 
  519000   0.99910441    24.152649    4.7207469    1.4986529    6.2193998    4.6101266   0.11062038 
  520500    1.0000084    24.156188    4.7198355    1.5000088    6.2198443    4.6087766    0.1110589 
  522000    1.0024325    24.114049    4.7188017     1.503645    6.2224468    4.6085988    0.1102029 
  523500   0.99844686    24.138929    4.7181482    1.4976666    6.2158148     4.609656   0.10849222 
  525000   0.99781209    24.052351    4.7194559    1.4967144    6.2161703    4.6086076   0.11084827 
  526500    1.0016582    24.094588    4.7199703    1.5024835    6.2224538    4.6092287   0.11074163 
  528000    1.0016676    24.165278    4.7202152    1.5024976    6.2227128    4.6093212   0.11089399 
  529500    1.0003439    24.161891    4.7163651    1.5005121    6.2168772    4.6057578   0.11060726 
  531000    1.0003558    24.164602     4.720358      1.50053     6.220888    4.6076111   0.11274686 
  532500    1.0033258    24.089651    4.7182721    1.5049849     6.223257    4.6088564   0.10941563 
  534000    1.0002764    24.136947    4.7172812    1.5004109    6.2176921    4.6085293   0.10875184 
  535500   0.99979916    24.191764    4.7189497     1.499695    6.2186447    4.6086426   0.11030701 
  537000    0.9996441    24.110372    4.7186173    1.4994624    6.2180798    4.6087155   0.10990184 
  538500    1.0002905    24.162989    4.7185563     1.500432    6.2189882     4.608731   0.10982528 
  540000    1.0025047    24.110664    4.7187877    1.5037534    6.2225411    4.6083887   0.11039907 
  541500     1.003075    24.155878    4.7189793    1.5046088    6.2235881    4.6094604    0.1095189 
  543000    1.0003926    24.146621     4.720703    1.5005852    6.2212882    4.6092427   0.11146026 
  544500   0.99807927    24.102692    4.7205299    1.4971152    6.2176451    4.6082638   0.11226607 
  546000    1.0024669    24.160678    4.7193275    1.5036967    6.2230242     4.608313   0.11101445 
  547500    1.0012637    24.082097    4.7172474    1.5018919    6.2191393    4.6074906    0.1097568 
  549000    1.0012398    24.148233    4.7200186    1.5018561    6.2218746    4.6093492    0.1106694 
  550500    1.0022032    24.124402    4.7218647    1.5033011    6.2251658    4.6099609    0.1119038 
  552000   0.99940699    24.087229    4.7196564    1.4991068    6.2187631    4.6082995   0.11135685 
  553500    1.0010016    24.080337    4.7149193    1.5014987     6.216418    4.6044454   0.11047391 
  555000    1.0029088    24.129717    4.7180198    1.5043595    6.2223794    4.6077949    0.1102249 
  556500   0.99945099    24.189637    4.7199838    1.4991728    6.2191566    4.6104309   0.10955291 
  558000    1.0006429    24.057047     4.717466    1.5009607    6.2184267    4.6075079   0.10995814 
  559500    1.0019447    24.134018    4.7227071    1.5029133    6.2256204    4.6099377   0.11276945 
  561000    1.0034921    24.133301    4.7186712    1.5052344    6.2239055    4.6083623   0.11030883 
  562500    1.0003049    24.060715    4.7197149    1.5004537    6.2201685    4.6094311   0.11028379 
  564000    1.0030994     24.14845    4.7175894    1.5046454    6.2222348    4.6070793   0.11051017 
  565500    1.0014473    24.133368    4.7215862    1.5021673    6.2237534    4.6097065    0.1118797 
  567000    1.0005009    24.210924    4.7168563    1.5007477     6.217604    4.6077099   0.10914638 
  568500    1.0033746    24.093951    4.7189442    1.5050582    6.2240023    4.6092762   0.10966797 
  570000     1.001858    24.092233    4.7190614    1.5027832    6.2218446    4.6073184   0.11174298 
  571500   0.99781673    24.059031    4.7203701    1.4967214    6.2170915    4.6098463   0.11052378 
  573000    1.0013202     24.16248    4.7216521    1.5019766    6.2236287    4.6112177    0.1104344 
  574500    1.0022287     24.18468    4.7184386    1.5033393     6.221778    4.6083117   0.11012694 
  576000    1.0009953    24.023946    4.7171513    1.5014893    6.2186405    4.6090118    0.1081395 
  577500    1.0016168    24.090043    4.7175177    1.5024214    6.2199391    4.6094816   0.10803613 
  579000    1.0009472     24.21082    4.7211648    1.5014171    6.2225819    4.6090685   0.11209627 
  580500    0.9998222    24.075749     4.719921    1.4997296    6.2196506    4.6081491   0.11177196 
  582000    1.0013817    24.079006    4.7189617    1.5020688    6.2210305    4.6088345    0.1101272 
  583500    1.0016244    24.122606    4.7167861    1.5024329     6.219219    4.6074584   0.10932779 
  585000    1.0006566    24.087931    4.7202128    1.5009812     6.221194    4.6098488   0.11036401 
  586500   0.99968614    24.082521     4.718766    1.4995255    6.2182915    4.6069179   0.11184814 
  588000    1.0018293    24.072413     4.718914    1.5027402    6.2216542    4.6077229   0.11119107 
  589500    1.0028549    24.072448    4.7201625    1.5042787    6.2244412     4.607968   0.11219449 
  591000    1.0026071    24.144352    4.7202505    1.5039069    6.2241574    4.6085366   0.11171394 
  592500   0.99976417    24.179814    4.7198888    1.4996425    6.2195313    4.6095778   0.11031105 
  594000    1.0009828    24.043224    4.7157028    1.5014705    6.2171733    4.6077083   0.10799454 
  595500    1.0016853    24.150827    4.7188582    1.5025243    6.2213825    4.6087158   0.11014242 
  597000    1.0012979    24.073655    4.7153966    1.5019431    6.2173397    4.6059601   0.10943649 
  598500    1.0012409    24.119387    4.7173664    1.5018576     6.219224     4.607189   0.11017735 
  600000   0.99860889    24.178459    4.7181386    1.4979096    6.2160483    4.6070459   0.11109269 
  601500    1.0025959     24.09225    4.7195201    1.5038901    6.2234101    4.6090202   0.11049988 
  603000    1.0024613     24.14506    4.7182681    1.5036882    6.2219562    4.6078689   0.11039914 
  604500    1.0010823    24.177963    4.7184311    1.5016197    6.2200508    4.6076151   0.11081598 
  606000    1.0023009    24.099276    4.7194655    1.5034477    6.2229132     4.609964   0.10950148 
  607500    1.0012023    24.005423    4.7205452    1.5017997    6.2223449    4.6089091   0.11163613 
  609000    1.0025817    24.128328    4.7192154    1.5038688    6.2230842    4.6093691   0.10984624 
  610500    1.0010837    24.170136    4.7202807    1.5016218    6.2219025    4.6095275   0.11075322 
  612000   0.99703114     24.08888    4.7182875     1.495543    6.2138305    4.6081604   0.11012704 
  613500    1.0011301    24.107494    4.7186951    1.5016914    6.2203864    4.6094461   0.10924894 
  615000    1.0013416    24.044964    4.7174667    1.5020087    6.2194754    4.6082013   0.10926547 
  616500   0.99814138    24.097054    4.7181186    1.4972084    6.2153269    4.6075899   0.11052864 
  618000    1.0010367    24.173517    4.7193473    1.5015513    6.2208987     4.607982   0.11136528 
  619500   0.99974357    24.122179    4.7163774    1.4996116     6.215989    4.6078764   0.10850102 
  621000   0.99958642    24.082106    4.7197626    1.4993759    6.2191386    4.6082387   0.11152395 
  622500    1.0020191    24.063565    4.7186078     1.503025    6.2216328    4.6080984   0.11050938 
  624000   0.99928171    24.178977    4.7205632    1.4989189     6.219482    4.6101027   0.11046047 
  625500    1.0036893    24.189668    4.7213751    1.5055302    6.2269053     4.609335   0.11204016 
  627000   0.99827549    24.073594    4.7189156    1.4974095    6.2163251    4.6096959   0.10921967 
  628500    1.0013446    24.102341    4.7172581    1.5020132    6.2192713    4.6061922   0.11106595 
  630000    1.0013478    24.100781    4.7200091    1.5020179     6.222027    4.6098772   0.11013191 
  631500    1.0008861    24.152432    4.7198544    1.5013254    6.2211798     4.607491   0.11236336 
  633000    1.0001328    24.099505     4.716838    1.5001955    6.2170334    4.6074501   0.10938788 
  634500    1.0026367    24.146913    4.7214563    1.5039513    6.2254075    4.6098618   0.11159441 
  636000   0.99946212    24.138444     4.717259    1.4991895    6.2164485    4.6068507    0.1104083 
  637500    1.0024296    24.168193    4.7207128    1.5036406    6.2243534    4.6089606   0.11175219 
  639000    1.0005887    24.101062    4.7181412    1.5008793    6.2190205     4.607881   0.11026024 
  640500   0.99819079     24.17718    4.7186107    1.4972825    6.2158932    4.6096747   0.10893599 
  642000    1.0017617    24.098524    4.7199229    1.5026388    6.2225617    4.6079437    0.1119792 
  643500   0.99987414    24.136719    4.7183729    1.4998075    6.2181804    4.6087901    0.1095828 
  645000   0.99953923    24.149927    4.7184651    1.4993051    6.2177702    4.6074278   0.11103728 
  646500    0.9989541    24.129282    4.7204797    1.4984274    6.2189071    4.6098014   0.11067831 
  648000   0.99825925    24.090775    4.7206619    1.4973852     6.218047     4.609533   0.11112882 
  649500    1.0025312     24.08193     4.720187    1.5037931    6.2239801    4.6090239   0.11116312 
  651000    1.0013366     24.19332     4.720334    1.5020011    6.2223351    4.6086314   0.11170261 
  652500    0.9988147    24.127506    4.7182953    1.4982183    6.2165136    4.6060828   0.11221243 
  654000   0.99893448    24.156646    4.7177461     1.498398    6.2161441    4.6081035   0.10964256 
  655500    1.0007591     24.14076    4.7186669    1.5011349    6.2198018    4.6066172   0.11204969 
  657000    1.0022513    24.123552    4.7186321    1.5033732    6.2220053    4.6097068   0.10892525 
  658500    1.0031525    24.076312    4.7213097    1.5047251    6.2260348    4.6094874   0.11182235 
  660000   0.99973297    24.128825    4.7188917    1.4995957    6.2184875    4.6085406   0.11035116 
  661500   0.99865786    24.091994    4.7182853    1.4979831    6.2162684    4.6064664   0.11181891 
  663000   0.99958335     24.12266    4.7168901    1.4993713    6.2162614     4.608138   0.10875208 
  664500    1.0017829    24.198492    4.7148138    1.5026706    6.2174843    4.6056328   0.10918095 
  666000    1.0002189    24.119809    4.7194566    1.5003246    6.2197813    4.6081259   0.11133072 
  667500   0.99955183    24.110507    4.7189341     1.499324    6.2182581    4.6082131   0.11072104 
  669000    1.0008508    24.171932     4.719505    1.5012725    6.2207775    4.6077767   0.11172822 
  670500    1.0022945    24.203913     4.721298     1.503438     6.224736    4.6078688   0.11342917 
  672000   0.99890838    24.071013    4.7184991    1.4983589    6.2168579    4.6081619   0.11033715 
  673500    1.0001267    24.203383    4.7195669    1.5001863    6.2197532     4.609371   0.11019589 
  675000    1.0025898    24.161319    4.7189844     1.503881    6.2228654    4.6076837   0.11130072 
  676500    1.0003703    24.192061    4.7160543    1.5005518     6.216606    4.6065054    0.1095489 
  678000   0.99840612    24.124895    4.7182313    1.4976055    6.2158368    4.6073751   0.11085624 
  679500    1.0023799    24.128818    4.7158469    1.5035661    6.2194131    4.6063955   0.10945139 
  681000    1.0005601    24.078779    4.7173335    1.5008364    6.2181699    4.6077298   0.10960376 
  682500    1.0017402    24.112435    4.7188795    1.5026065     6.221486    4.6075435     0.111336 
  684000    1.0017633    24.261187    4.7187825    1.5026413    6.2214238    4.6078762   0.11090625 
  685500    0.9989239    24.125395    4.7183538    1.4983821    6.2167359    4.6075327   0.11082108 
  687000    1.0008102    24.061978    4.7191514    1.5012115    6.2203629    4.6093967    0.1097547 
  688500    1.0040882    24.109768    4.7184965    1.5061286    6.2246252     4.608124    0.1103725 
  690000    1.0008966    24.157259    4.7167195    1.5013411    6.2180607    4.6064092   0.11031031 
  691500     1.001253    24.083758    4.7184272    1.5018758    6.2203031    4.6075432   0.11088401 
  693000   0.99851232    24.119947    4.7195481    1.4977648    6.2173128    4.6085278   0.11102025 
  694500    1.0017327    24.131302    4.7184827    1.5025954    6.2210781     4.606484   0.11199875 
  696000    1.0012113    24.182745    4.7193562    1.5018132    6.2211694    4.6078313   0.11152487 
  697500   0.99883513    24.067811    4.7204241     1.498249     6.218673    4.6096981   0.11072591 
  699000    1.0029264    24.144608    4.7195215    1.5043859    6.2239074    4.6083951   0.11112645 
  700500    1.0004314    24.182489    4.7179693    1.5006434    6.2186127    4.6069407   0.11102863 
  702000   0.99859586     24.16897    4.7210074    1.4978901    6.2188975    4.6110053   0.11000208 
  703500     1.001504    24.035825    4.7184922    1.5022523    6.2207445    4.6083719   0.11012031 
  705000    1.0011903    24.162741    4.7186062    1.5017818     6.220388    4.6067612   0.11184496 
  706500    1.0021431    24.117493    4.7198438     1.503211    6.2230548    4.6105005   0.10934335 
  708000    1.0026544    24.175194     4.718481    1.5039779    6.2224589    4.6083222   0.11015882 
  709500    1.0029733    24.102941    4.7167366    1.5044563    6.2211929    4.6063802   0.11035635 
  711000    1.0007861     24.09648    4.7192419    1.5011754    6.2204173    4.6073337   0.11190821 
  712500    1.0000193    24.086974    4.7161055    1.5000252    6.2161308    4.6064607   0.10964486 
  714000    1.0008625    24.168619    4.7199624    1.5012901    6.2212525    4.6086905   0.11127187 
  715500    1.0031599    24.110009    4.7202149    1.5047362    6.2249511    4.6099533   0.11026161 
  717000    1.0024651    24.154776    4.7184692    1.5036939    6.2221632    4.6084934   0.10997582 
  718500    1.0009767    24.093645     4.715172    1.5014614    6.2166334    4.6062965   0.10887549 
  720000   0.99855546    24.061556    4.7214898    1.4978295    6.2193193    4.6100987   0.11139115 
  721500    1.0000716    24.101416    4.7163253    1.5001037    6.2164291    4.6080353   0.10829002 
  723000   0.99913254    24.077123    4.7190455    1.4986951    6.2177406    4.6079964   0.11104909 
  724500    1.0032948    24.148354    4.7180057    1.5049385    6.2229442    4.6078818   0.11012388 
  726000   0.99874578    24.117401    4.7171731     1.498115     6.215288     4.606816   0.11035711 
  727500    1.0045707    24.106273    4.7147379    1.5068523    6.2215902    4.6045738   0.11016404 
  729000    1.0009126    24.117582    4.7217128    1.5013651    6.2230779    4.6088461   0.11286663 
  730500   0.99993257     24.21055    4.7208875    1.4998951    6.2207827    4.6106814   0.11020616 
  732000    1.0015967    24.093719    4.7180287    1.5023913      6.22042    4.6069266   0.11110207 
  733500    1.0023208    24.140496    4.7197146    1.5034774     6.223192    4.6084356   0.11127899 
  735000    1.0017239    24.156054    4.7204519    1.5025821     6.223034    4.6103751   0.11007681 
  736500    1.0000304    24.060564    4.7189749    1.5000419    6.2190168    4.6072749   0.11170003 
  738000    0.9996984     24.11793    4.7171218    1.4995439    6.2166656    4.6067689   0.11035289 
  739500    1.0010279    24.089129     4.717421    1.5015382    6.2189591    4.6064635   0.11095751 
  741000    1.0010087    24.034973    4.7174678    1.5015093    6.2189772    4.6074688   0.10999901 
  742500    0.9997857    24.073633    4.7150543    1.4996748    6.2147292    4.6058738   0.10918055 
  744000    1.0002544    24.126482    4.7179169    1.5003779    6.2182947    4.6084988   0.10941809 
  745500     1.001088    24.105375    4.7193019    1.5016283    6.2209302    4.6086923   0.11060964 
  747000    1.0000795    24.040957    4.7209056    1.5001155    6.2210211    4.6096664   0.11123916 
  748500    1.0009448    24.246587    4.7160112    1.5014135    6.2174247    4.6064009   0.10961027 
  750000    1.0015956    24.158969    4.7192452    1.5023897    6.2216349    4.6076909    0.1115543 
  751500   0.99921916    24.139755    4.7184512     1.498825    6.2172763    4.6078273   0.11062389 
  753000    1.0001187    24.084118    4.7186679    1.5001744    6.2188423     4.607981   0.11068694 
  754500    1.0018906    24.085187    4.7166483    1.5028322    6.2194805    4.6055733   0.11107501 
  756000    1.0008097    24.124404    4.7199851    1.5012108    6.2211958    4.6101231   0.10986193 
  757500    1.0031949    24.134202     4.720796    1.5047887    6.2255847    4.6098387   0.11095731 
  759000    0.9992052    24.109921    4.7177181    1.4988041    6.2165222    4.6080979   0.10962016 
  760500   0.99945192    24.141951    4.7182551    1.4991742    6.2174293    4.6080228   0.11023228 
  762000    1.0010266    24.167272    4.7155257    1.5015362    6.2170619    4.6078835   0.10764218 
  763500    1.0010409    24.037851    4.7199548    1.5015577    6.2215125    4.6098134   0.11014148 
  765000     1.003643    24.186044    4.7172807    1.5054608    6.2227415    4.6065168   0.11076391 
  766500   0.99929758    24.194251    4.7216751    1.4989427    6.2206178    4.6099505   0.11172464 
  768000    1.0018135    24.215967      4.71579    1.5027165    6.2185066    4.6067256   0.10906445 
  769500    1.0001237    24.154504     4.721442    1.5001819    6.2216239    4.6095823   0.11185967 
  771000    1.0012871    24.150985    4.7186066     1.501927    6.2205336    4.6091636     0.109443 
  772500   0.99908512     24.11666    4.7190749     1.498624    6.2176989    4.6106206   0.10845433 
  774000    1.0002495    24.085585     4.717986    1.5003705    6.2183566    4.6069026   0.11108343 
  775500    1.0010967    24.141515    4.7194272    1.5016413    6.2210685    4.6078998   0.11152746 
  777000   0.99863933    24.134109    4.7208454    1.4979553    6.2188007    4.6095241   0.11132134 
  778500    1.0016086    24.173888    4.7173759    1.5024092    6.2197851    4.6074376   0.10993835 
  780000   0.99921688    24.170899    4.7210838    1.4988216    6.2199055    4.6097425   0.11134139 
  781500    1.0014092    24.139287    4.7181434    1.5021101    6.2202535    4.6083125   0.10983083 
  783000   0.99992165    24.081873     4.718441    1.4998788    6.2183197    4.6093661   0.10907489 
  784500   0.99897234    24.109458    4.7160143    1.4984548     6.214469    4.6073753   0.10863895 
  786000    1.0008676    24.186176    4.7171575    1.5012976    6.2184551    4.6095295   0.10762807 
  787500    1.0010448     24.08399    4.7182666    1.5015634      6.21983    4.6080729   0.11019367 
  789000    1.0004431    24.135849    4.7206016    1.5006609    6.2212626    4.6111923    0.1094093 
  790500    1.0007929    24.083696    4.7195137    1.5011856    6.2206994    4.6071089   0.11240488 
  792000   0.99998219    24.057068    4.7148546    1.4999696    6.2148242    4.6047747   0.11007994 
  793500   0.99920985    24.115674    4.7175526    1.4988111    6.2163636    4.6064736   0.11107899 
  795000    1.0019506    24.078882    4.7196066    1.5029221    6.2225287    4.6065727   0.11303391 
  796500   0.99774004    24.144817    4.7226199    1.4966063    6.2192263    4.6114627    0.1111572 
  798000    1.0004315    24.055164    4.7175815    1.5006435     6.218225    4.6070385   0.11054298 
  799500   0.99926568    24.113473    4.7188346    1.4988948    6.2177294    4.6084244   0.11041019 
  801000    1.0033439    24.097345     4.716753    1.5050121    6.2217651    4.6071289   0.10962412 
  802500    0.9995483    24.051243    4.7188836    1.4993187    6.2182023    4.6076892   0.11119438 
  804000   0.99938028    24.105443    4.7190704    1.4990667    6.2181371     4.607842   0.11122837 
  805500     1.001927    24.134708    4.7182303    1.5028868    6.2211171    4.6071289   0.11110145 
  807000    1.0025224    24.165479    4.7192507    1.5037799    6.2230306    4.6101482   0.10910251 
  808500    1.0002673    24.153758    4.7211489    1.5003973    6.2215461    4.6096135   0.11153535 
  810000    1.0008008     24.16282    4.7211401    1.5011975    6.2223376    4.6092128   0.11192731 
  811500     1.000243    24.126632    4.7185597    1.5003607    6.2189204     4.609187   0.10937261 
  813000    1.0009807    24.180877    4.7177918    1.5014673    6.2192591    4.6090103   0.10878157 
  814500   0.99803433    24.106669    4.7204124    1.4970478    6.2174602    4.6088609    0.1115515 
  816000    1.0009936    24.188265    4.7191678    1.5014867    6.2206546    4.6085231   0.11064477 
  817500    1.0033574    24.147265    4.7201425    1.5050324    6.2251749    4.6092769   0.11086557 
  819000     1.002671    24.062481    4.7175707    1.5040028    6.2215734    4.6072778   0.11029287 
  820500    1.0017636    24.089476    4.7196155    1.5026417    6.2222572    4.6086729    0.1109426 
  822000    1.0016265    24.106333    4.7212117     1.502436    6.2236477    4.6107406   0.11047111 
  823500   0.99985612    24.096057    4.7191668    1.4997805    6.2189473    4.6083232   0.11084362 
  825000    1.0029283    24.159047    4.7208402    1.5043887    6.2252289    4.6087901   0.11205011 
  826500    1.0017244     24.12046    4.7193669    1.5025828    6.2219497     4.609257   0.11010989 
  828000    1.0034453    24.119365    4.7180413    1.5051642    6.2232055    4.6094633   0.10857807 
  829500    1.0019765    24.103288    4.7168717     1.502961    6.2198328    4.6062334    0.1106384 
  831000   0.99912206    24.170364    4.7164286    1.4986794     6.215108     4.607056   0.10937261 
  832500    1.0022272    24.122367    4.7162614     1.503337    6.2195984    4.6070092   0.10925216 
  834000    1.0006375    24.117225    4.7180975    1.5009525      6.21905    4.6081752   0.10992238 
  835500    1.0001143     24.11991    4.7187683    1.5001677    6.2189359    4.6088377   0.10993061 
  837000    1.0008764    24.077496    4.7198352    1.5013108     6.221146     4.608758   0.11107722 
  838500    1.0001766    24.097793    4.7156735    1.5002612    6.2159347    4.6047438   0.11092974 
  840000   0.99992012    24.076132    4.7183454    1.4998765    6.2182219    4.6083863   0.10995914 
  841500   0.99994758    24.149686    4.7179626    1.4999177    6.2178803    4.6071964   0.11076615 
  843000    1.0047645    24.038571    4.7159588     1.507143    6.2231018    4.6064197   0.10953911 
  844500    1.0016883    24.150114     4.719081    1.5025287    6.2216097    4.6087699   0.11031107 
  846000    1.0012619    24.108469    4.7178502    1.5018891    6.2197392    4.6079012   0.10994901 
  847500    1.0021592    24.139449    4.7188016     1.503235    6.2220366    4.6073472   0.11145439 
  849000    1.0016649     24.09031     4.719205    1.5024936    6.2216986    4.6085329   0.11067214 
  850500    1.0015321    24.071844    4.7200847    1.5022944    6.2223791    4.6091252   0.11095944 
  852000    1.0001261    24.094886    4.7211122    1.5001854    6.2212976    4.6105444   0.11056783 
  853500    1.0006058    24.190953    4.7191401    1.5009049     6.220045    4.6077543    0.1113858 
  855000    1.0004619    24.125759    4.7223437    1.5006892    6.2230329    4.6101411   0.11220263 
  856500    1.0023587    24.133172    4.7197801    1.5035343    6.2233144    4.6100296    0.1097505 
  858000   0.99931088    24.098004    4.7179487    1.4989626    6.2169113    4.6080839   0.10986484 
  859500    1.0009155    24.169952    4.7154113    1.5013695    6.2167808    4.6055196   0.10989171 
  861000    1.0003601    24.078259     4.716844    1.5005365    6.2173805    4.6081256   0.10871835 
  862500     1.002932    24.098557    4.7178758    1.5043943    6.2222702    4.6085667   0.10930917 
  864000   0.99933976    24.103249    4.7196415    1.4990059    6.2186474     4.611273   0.10836853 
  865500    1.0029203    24.114745    4.7191509    1.5043768    6.2235277    4.6109337   0.10821717 
  867000    0.9983598    24.108513    4.7172639     1.497536    6.2147999     4.607724   0.10953983 
  868500    1.0009541    24.138836    4.7196889    1.5014274    6.2211162    4.6076584   0.11203049 
  870000    1.0001188    24.140367    4.7186634    1.5001745    6.2188379    4.6074419   0.11122149 
  871500    1.0030849    24.143109    4.7181903    1.5046236    6.2228138    4.6070252   0.11116509 
  873000    1.0007707    24.055159     4.716025    1.5011523    6.2171774    4.6067311   0.10929396 
  874500    1.0006581    24.154589     4.717828    1.5009834    6.2188114    4.6070596   0.11076835 
  876000    1.0018999    24.106871    4.7188341    1.5028461    6.2216802    4.6086462   0.11018786 
  877500    1.0012038    24.113402     4.719017     1.501802     6.220819    4.6068962   0.11212075 
  879000   0.99946335    24.043456    4.7179228    1.4991913    6.2171141    4.6087297   0.10919309 
  880500    0.9999217    24.118912    4.7176527    1.4998788    6.2175315    4.6078944   0.10975825 
  882000    1.0013003    24.174208    4.7229218    1.5019467    6.2248685    4.6102087   0.11271313 
  883500    1.0013951    24.135558    4.7184661    1.5020889    6.2205549    4.6087221   0.10974392 
  885000    1.0012423    24.185061    4.7186561    1.5018597    6.2205158    4.6092729   0.10938315 
  886500    1.0011237    24.107112    4.7168992    1.5016818    6.2185811    4.6064832   0.11041609 
  888000   0.99912741    24.130335    4.7165653    1.4986874    6.2152527    4.6078806   0.10868472 
  889500    1.0026286    24.132629    4.7202258    1.5039391    6.2241649    4.6101061   0.11011973 
  891000    1.0023607    24.126435    4.7206614    1.5035373    6.2241987    4.6105329   0.11012846 
  892500    1.0017852    24.147723     4.719456     1.502674    6.2221301    4.6088697   0.11058628 
  894000   0.99982045    24.027657    4.7172848     1.499727    6.2170118    4.6073535   0.10993129 
  895500    1.0031952    24.095131    4.7196925    1.5047891    6.2244816    4.6085118   0.11118065 
  897000     1.000869    24.184501    4.7181644    1.5012998    6.2194641    4.6072444   0.11091992 
  898500    1.0016729    24.145571    4.7207698    1.5025056    6.2232754     4.609917   0.11085285 
  900000    1.0006305    24.133821    4.7175696    1.5009421    6.2185117    4.6077074   0.10986213 
  901500    1.0003466    24.188848    4.7194267    1.5005162    6.2199428    4.6093151   0.11011158 
  903000   0.99957171    24.130327    4.7191652    1.4993538     6.218519    4.6069098   0.11225535 
  904500    1.0015043     24.11493    4.7190287    1.5022527    6.2212814    4.6089692   0.11005952 
  906000    1.0002803    24.171527    4.7158882    1.5004167    6.2163049    4.6070098    0.1088784 
  907500   0.99937631    24.107469    4.7183022    1.4990608     6.217363    4.6090303   0.10927191 
  909000    1.0003631    24.079974    4.7212354    1.5005409    6.2217763     4.610201   0.11103437 
  910500   0.99787039    24.116516    4.7177754    1.4968019    6.2145773    4.6094766   0.10829879 
  912000    1.0011933     24.10695    4.7152623    1.5017862    6.2170484    4.6062324   0.10902989 
  913500    1.0002382    24.170269    4.7178284    1.5003536     6.218182    4.6069648   0.11086365 
  915000    1.0001932    24.105692    4.7193047     1.500286    6.2195907    4.6089584   0.11034629 
  916500    1.0016699    24.139225    4.7155631    1.5025012    6.2180643      4.60737   0.10819309 
  918000   0.99967779    24.118195    4.7172572     1.499513    6.2167701    4.6059239   0.11133331 
  919500   0.99985729    24.127587     4.720165    1.4997822    6.2199472    4.6099206   0.11024435 
  921000    1.0015422    24.103975    4.7188359    1.5023096    6.2211454    4.6081487   0.11068719 
  922500    1.0013529    24.178683    4.7176852    1.5020257    6.2197109    4.6082435   0.10944177 
  924000    1.0025358    24.108524    4.7169602       1.5038    6.2207602    4.6084612   0.10849904 
  925500    1.0006091    24.121689    4.7183328    1.5009099    6.2192427      4.60767   0.11066285 
  927000   0.99821426      24.1092    4.7160037    1.4973177    6.2133214    4.6073182   0.10868548 
  928500    1.0004782    24.138705    4.7193849    1.5007136    6.2200985     4.608855   0.11052985 
  930000    1.0015643    24.063107    4.7176069    1.5023427    6.2199496    4.6086152   0.10899168 
  931500    1.0029655    24.157231     4.718063    1.5044445    6.2225075    4.6083422   0.10972086 
  933000   0.99889317    24.026218    4.7194115     1.498336    6.2177475    4.6092721   0.11013941 
  934500    1.0001358    24.142775    4.7200977       1.5002    6.2202977    4.6072946   0.11280304 
  936000     1.001915    24.096507    4.7191373    1.5028688    6.2220061    4.6090796   0.11005771 
  937500    1.0013966    24.169327    4.7190854    1.5020911    6.2211766    4.6083117    0.1107737 
  939000    1.0008244    24.137628    4.7182593    1.5012329    6.2194922    4.6085351   0.10972424 
  940500    1.0023667    24.137847    4.7165657    1.5035463     6.220112    4.6064305   0.11013515 
  942000    1.0002197    24.098751     4.715306    1.5003258    6.2156318    4.6069614   0.10834456 
  943500    1.0019284    24.207827     4.718668    1.5028889    6.2215569    4.6080709   0.11059716 
  945000    1.0019551    24.083738    4.7183226     1.502929    6.2212516    4.6080961   0.11022654 
  946500    1.0017233    24.115286     4.718416    1.5025813    6.2209973    4.6104251   0.10799097 
  948000    1.0001113    24.052717     4.719408    1.5001633    6.2195713    4.6089698    0.1104382 
  949500    1.0003305    24.153349    4.7179926     1.500492    6.2184846    4.6078853   0.11010734 
  951000    1.0017526    24.131558    4.7187859    1.5026251     6.221411    4.6099584   0.10882747 
  952500   0.99949268    24.045842    4.7234587    1.4992353     6.222694    4.6110163   0.11244241 
  954000    1.0007101    24.122968    4.7180711    1.5010614    6.2191324    4.6089548   0.10911622 
  955500    1.0014508    24.084294    4.7196748    1.5021725    6.2218474    4.6069334   0.11274138 
  957000    1.0004661    24.084802    4.7177847    1.5006954    6.2184801    4.6083256   0.10945904 
  958500     1.002492    24.064963    4.7171535    1.5037343    6.2208878    4.6078181   0.10933541 
  960000   0.99973384    24.122374    4.7161631     1.499597    6.2157602    4.6067479   0.10941528 
  961500     1.001109    24.104238    4.7206697    1.5016598    6.2223294    4.6089743   0.11169543 
  963000   0.99990522     24.11603    4.7187747    1.4998541    6.2186288    4.6065877   0.11218699 
  964500   0.99831814     24.16558    4.7214253    1.4974735    6.2188988     4.611084   0.11034124 
  966000    1.0003134    24.117933    4.7153151    1.5004663    6.2157814    4.6062338   0.10908126 
  967500    1.0012303    24.125795    4.7190542    1.5018418     6.220896    4.6076955   0.11135865 
  969000    1.0012344    24.127713    4.7165328    1.5018478    6.2183806    4.6064941   0.11003873 
  970500   0.99760449    24.121418    4.7176086     1.496403    6.2140116    4.6077725   0.10983608 
  972000   0.99996519     24.02853    4.7176496    1.4999441    6.2175936    4.6083024   0.10934713 
  973500      1.00092    24.147615    4.7170304    1.5013763    6.2184067    4.6078587   0.10917168 
  975000    1.0000159    24.154973    4.7139007    1.5000202    6.2139209    4.6061481   0.10775258 
  976500    1.0003087      24.1772    4.7161953    1.5004594    6.2166547     4.606369    0.1098263 
  978000   0.99841589    24.171752    4.7178813    1.4976201    6.2155014    4.6075474   0.11033383 
  979500   0.99758184    24.048925    4.7187856     1.496369    6.2151546     4.608074   0.11071154 
  981000    1.0011589    24.166587    4.7186001    1.5017347    6.2203348    4.6082915   0.11030863 
  982500    1.0013182    24.165306    4.7204769    1.5019736    6.2224505    4.6084844   0.11199246 
  984000   0.99905494     24.12911    4.7193239    1.4985787    6.2179026    4.6073796   0.11194431 
  985500    1.0030659    24.196403    4.7155842    1.5045951    6.2201793     4.605118    0.1104662 
  987000    1.0009014    24.116491    4.7192254    1.5013483    6.2205737    4.6079513    0.1112741 
  988500    1.0018092    24.152647    4.7154325    1.5027101    6.2181425    4.6081229   0.10730955 
  990000    1.0018378    24.125281    4.7188095     1.502753    6.2215625    4.6060086   0.11280089 
  991500     1.000398     24.13014    4.7195532    1.5005933    6.2201465    4.6091742   0.11037896 
  993000    1.0012493     24.13693    4.7158425    1.5018703    6.2177128    4.6062305   0.10961193 
  994500    1.0019049     24.07964    4.7172097    1.5028537    6.2200633    4.6066831   0.11052653 
  996000   0.99649356    24.121726    4.7202699    1.4947366    6.2150065    4.6096916    0.1105783 
  997500    1.0008718    24.038457    4.7185003     1.501304    6.2198042    4.6076422   0.11085804 
  999000    1.0021233    24.104781    4.7178191    1.5031812    6.2210003    4.6075553   0.11026376 
 1000500    1.0017373    24.205604    4.7171244    1.5026023    6.2197267    4.6074762   0.10964822 
 1002000    1.0024714    24.097025    4.7183418    1.5037034    6.2220453    4.6065913   0.11175051 
 1003500    1.0001994    24.144601    4.7180458    1.5002953    6.2183412    4.6072351   0.11081075 
 1005000    0.9999619    24.130932    4.7170331    1.4999391    6.2169723    4.6065865   0.11044666 
 1006500    1.0006977    24.155802    4.7204461    1.5010428    6.2214889    4.6104846   0.10996148 
 1008000   0.99760032    24.050983    4.7159165    1.4963968    6.2123133     4.606596   0.10932055 
 1009500    1.0001708     24.09077    4.7217423    1.5002525    6.2219948      4.61045   0.11129226 
 1011000    1.0001103    24.156506    4.7169856    1.5001618    6.2171474     4.605771   0.11121461 
 1012500    1.0012322    24.062677    4.7165852    1.5018446    6.2184298    4.6061321   0.11045313 
 1014000    1.0040165    24.158668    4.7209753     1.506021    6.2269962    4.6091013   0.11187392 
 1015500     1.002251    24.185764    4.7196645    1.5033727    6.2230372    4.6076492   0.11201535 
 1017000   0.99966097    24.104684     4.717791    1.4994877    6.2172787    4.6088744   0.10891662 
 1018500   0.99978607    24.053054    4.7164496    1.4996754     6.216125    4.6068449   0.10960466 
 1020000    1.0008531    24.178682    4.7194731    1.5012759     6.220749    4.6077504   0.11172267 
 1021500    1.0024376     24.09394    4.7175349    1.5036527    6.2211875    4.6078089   0.10972591 
 1023000   0.99880592    24.094439    4.7179828    1.4982052     6.216188    4.6089024   0.10908042 
 1024500   0.99893868    24.099531    4.7166605    1.4984043    6.2150648    4.6082012   0.10845935 
 1026000    1.0023242    24.164654     4.720996    1.5034826    6.2244786    4.6090992   0.11189677 
 1027500    1.0032709    24.052551    4.7208218    1.5049027    6.2257244    4.6101697   0.11065206 
 1029000   0.99918237    24.130819    4.7189451    1.4987698     6.217715    4.6089969   0.10994826 
 1030500   0.99939592    23.975132     4.717706    1.4990902    6.2167962    4.6078853   0.10982071 
 1032000    1.0018989    24.084162    4.7159763    1.5028447    6.2188209    4.6072965   0.10867975 
 1033500   0.99858654    24.048402    4.7146572    1.4978761    6.2125333    4.6049137   0.10974353 
 1035000    1.0014284    24.078053    4.7187685    1.5021389    6.2209074     4.608699   0.11006954 
 1036500    1.0008934    24.100165    4.7193173    1.5013364    6.2206537    4.6075058   0.11181154 
 1038000     1.002009    24.144132    4.7201737    1.5030098    6.2231835    4.6089296   0.11124403 
 1039500    1.0006926     24.09735    4.7184734    1.5010352    6.2195086    4.6073365   0.11113695 
 1041000    1.0010667    24.156496    4.7189692    1.5015964    6.2205656     4.608157   0.11081226 
 1042500    1.0010498    24.202427    4.7182906     1.501571    6.2198616    4.6062947   0.11199588 
 1044000    1.0001597     24.09214    4.7160319    1.5002358    6.2162677     4.605482   0.11054987 
 1045500    1.0002784    24.113686    4.7204979    1.5004139    6.2209119    4.6089251    0.1115728 
 1047000    1.0025155    24.110684    4.7170192    1.5037696    6.2207888    4.6072781    0.1097411 
 1048500    1.0014938    24.109986    4.7189654     1.502237    6.2212024    4.6073809   0.11158453 
 1050000    0.9994495    24.120632    4.7214489    1.4991705    6.2206195    4.6116398    0.1098091 
 1051500   0.99939629    24.039066    4.7201991    1.4990907    6.2192898    4.6083797   0.11181941 
 1053000    1.0030287     24.20643    4.7198846    1.5045393    6.2244239    4.6080503    0.1118344 
 1054500     1.001297    24.114591    4.7180337    1.5019418    6.2199755    4.6084885   0.10954515 
 1056000    1.0015571     24.02523    4.7201335     1.502332    6.2224655    4.6087725   0.11136109 
 1057500    1.0010005    24.185007    4.7215654     1.501497    6.2230624    4.6111418    0.1104236 
 1059000    1.0011077    24.147286    4.7191031    1.5016578    6.2207609    4.6075002   0.11160297 
 1060500    1.0015112    24.124587    4.7166433    1.5022631    6.2189064    4.6087396   0.10790369 
 1062000    1.0024151    24.146352    4.7215596     1.503619    6.2251786    4.6091431   0.11241647 
 1063500     1.001983    24.103065    4.7161835    1.5029708    6.2191543    4.6061572   0.11002632 
 1065000    1.0009767    24.139522    4.7207019    1.5014613    6.2221632    4.6081679   0.11253401 
 1066500    1.0014216    24.091513    4.7179448    1.5021286    6.2200734    4.6080408   0.10990404 
 1068000    1.0003625    24.148899    4.7154803      1.50054    6.2160203    4.6060686   0.10941173 
 1069500    1.0003456    24.123093    4.7190555    1.5005147    6.2195702    4.6085909   0.11046464 
 1071000    1.0004567    24.124604    4.7168353    1.5006813    6.2175166    4.6065427   0.11029259 
 1072500    1.0012565    24.120713    4.7214701     1.501881    6.2233511    4.6095094   0.11196069 
 1074000    1.0014097    24.123789    4.7198628    1.5021109    6.2219737    4.6084547    0.1114081 
 1075500    1.0012498    24.071208     4.713761    1.5018709     6.215632    4.6063221   0.10743888 
 1077000    0.9992913     24.09898    4.7158419    1.4989332    6.2147751    4.6065026   0.10933933 
 1078500    1.0007487    24.117088    4.7170565    1.5011194    6.2181759    4.6067341   0.11032247 
 1080000    1.0028097    24.098935     4.719345    1.5042109    6.2235559    4.6082635   0.11108149 
 1081500    1.0035426    24.018698    4.7207343    1.5053102    6.2260445    4.6100441   0.11069027 
 1083000   0.99995522    24.130322    4.7164763    1.4999291    6.2164054    4.6064405   0.11003579 
 1084500   0.99860029    24.141406    4.7184615    1.4978967    6.2163582    4.6091041   0.10935742 
 1086000    1.0013034    24.196986    4.7197366    1.5019513     6.221688     4.609044   0.11069263 
 1087500    1.0018276    24.106577    4.7176065    1.5027377    6.2203442    4.6072196   0.11038698 
 1089000   0.99937728    24.038818    4.7170426    1.4990622    6.2161048    4.6072788   0.10976383 
 1090500   0.99871133    24.054729    4.7204112    1.4980633    6.2184745    4.6089344   0.11147679 
 1092000   0.99976446    24.105385    4.7149856     1.499643    6.2146286    4.6064801   0.10850552 
 1093500   0.99952061    24.081331    4.7171836    1.4992772    6.2164608    4.6074471   0.10973647 
 1095000     1.000869    24.122732    4.7173029    1.5012997    6.2186026    4.6074573   0.10984556 
 1096500    1.0035107    24.097646     4.721093    1.5052623    6.2263553    4.6089648   0.11212823 
 1098000    1.0007535    24.186857    4.7191837    1.5011265    6.2203102    4.6077331   0.11145052 
 1099500    1.0011029    24.141903    4.7173827    1.5016506    6.2190332    4.6067832   0.11059942 
 1101000   0.99966748    24.099913    4.7161659    1.4994975    6.2156634    4.6076531   0.10851272 
 1102500    0.9992826    24.212835    4.7212717    1.4989202    6.2201919    4.6101739   0.11109777 
 1104000    1.0013193    24.110506    4.7164206    1.5019753    6.2183959    4.6068074   0.10961319 
 1105500    1.0005279    24.095614    4.7163935    1.5007882    6.2171816    4.6055868   0.11080667 
 1107000    1.0003628    24.123783    4.7170096    1.5005405    6.2175501    4.6070125   0.10999706 
 1108500    1.0005905    24.137547    4.7205817    1.5008821    6.2214638    4.6088693   0.11171239 
 1110000    1.0010021    24.161323    4.7150144    1.5014995    6.2165139    4.6064805   0.10853394 
 1111500   0.99903207    24.087613    4.7162711    1.4985444    6.2148155    4.6051892   0.11108194 
 1113000    1.0013904    24.122345    4.7208623    1.5020819    6.2229441    4.6102367    0.1106256 
 1114500    1.0022714     24.14191    4.7153888    1.5034033    6.2187921    4.6064509   0.10893786 
 1116000    1.0006157    24.141839    4.7181109    1.5009198    6.2190307    4.6075549   0.11055594 
 1117500   0.99947371    24.160548    4.7177702    1.4992068     6.216977    4.6068008   0.11096936 
 1119000    1.0004044    24.100412    4.7193377     1.500603    6.2199406    4.6088012   0.11053645 
 1120500    1.0013473    24.147597    4.7188333    1.5020172    6.2208505    4.6084274   0.11040582 
[...]
 2604000    1.0029669    24.065275    4.7153786    1.5044467    6.2198252    4.6061258   0.10925272    59.538798    21.280894     52.47999 
 2607000    1.0017022    24.113003    4.7176102    1.5025496    6.2201598     4.607268   0.11034222    44.764395     15.27939    40.445833 
 2610000    1.0009081    24.109153    4.7163477    1.5013585    6.2177062    4.6067586   0.10958915    45.743511    19.943109    35.391506 
 2613000    1.0012135    24.059877    4.7152988    1.5018165    6.2171153    4.6043509   0.11094794    17.611646    12.950647    6.3936898 
 2616000    1.0025269    24.053075    4.7136898    1.5037866    6.2174764    4.6044422   0.10924765    42.921526    14.685819    38.732118 
 2619000   0.99997872    24.129634    4.7150557    1.4999644    6.2150201    4.6041865   0.11086919    17.744802    7.3068765    14.318145 
 2622000    1.0004796    24.158536     4.714586    1.5007156    6.2153017    4.6045948    0.1099912     26.28637    12.899803    18.362922 
 2625000   0.99865907      24.0506    4.7183252    1.4979849    6.2163101    4.6075167    0.1108085    49.219903    28.325858    28.661248 
 2628000    1.0030955     24.06861    4.7150151    1.5046396    6.2196547    4.6059014   0.10911373    56.041657    34.773435    29.174522 
 2631000    1.0002477    24.093955    4.7181451    1.5003678    6.2185129    4.6070183   0.11112679    36.469377    4.0685375    55.607577 
 2634000   0.99954377    24.101643    4.7166912    1.4993119    6.2160032    4.6056873    0.1110039    19.432216    2.5089586    30.097639 
 2637000   0.99960206    24.034154    4.7176894    1.4993994    6.2170888    4.6067442   0.11094521    24.440771    17.951877    8.9010906 
 2640000    1.0011778    24.123333    4.7153137     1.501763    6.2170767    4.6051796   0.11013414    43.463509    24.080852    26.588012 
 2643000    1.0000046    24.104272    4.7170554    1.5000032    6.2170585    4.6069831   0.11007227    51.918381    31.712995    27.716585 
 2646000    1.0013001    24.091352    4.7159294    1.5019464    6.2178759     4.606643   0.10928642    42.418962    8.9192215    45.953014 
 2649000    1.0029472    24.055624    4.7186119    1.5044171     6.223029    4.6063713   0.11224059    32.240656    4.4140543     50.28082 
 2652000    1.0007124    24.098533    4.7167659    1.5010648    6.2178307    4.6064264   0.11033944     56.45535    31.062075    34.833033 
 2655000    1.0008398    24.081138    4.7110055    1.5012559    6.2122615    4.6036006    0.1074049    47.905588    23.172302    33.927698 
 2658000    1.0015686    24.167348    4.7149904    1.5023492    6.2173396    4.6036986   0.11129184    41.844639    18.103309     32.56699 
 2661000   0.99822068    24.123989    4.7173283    1.4973273    6.2146556    4.6075165   0.10981183    60.137387    20.558805     54.29162 
 2664000    1.0016598    24.167456    4.7167738     1.502486    6.2192598     4.605443   0.11133077    45.381193    21.865304    32.257743 
 2667000    1.0005972    24.103564    4.7177866     1.500892    6.2186786    4.6077706     0.110016    48.981165    11.085936    51.982492 
 2670000    1.0012393    24.123819     4.718164    1.5018552    6.2200192    4.6064873    0.1116767    35.491623    20.541841     20.50725 
 2673000   0.99899034    24.131045    4.7171574    1.4984818    6.2156392    4.6047375   0.11241986    61.680587    24.189156    51.428586 
 2676000    1.0021261    24.087539    4.7176868    1.5031855    6.2208723    4.6057968   0.11189004    60.572808    24.948187    48.867803 
 2679000    1.0005908    24.012834    4.7154518    1.5008826    6.2163343    4.6054593   0.10999251    40.778613    25.246828    21.305608 
 2682000   0.99969935    24.009958     4.713434    1.4995453    6.2129793    4.6041437   0.10929036    56.127818    31.842204    33.313606 
 2685000   0.99942564    24.087321    4.7169921    1.4991347    6.2161269    4.6064402   0.11055193    63.279123    28.170748    48.159648 
 2688000   0.99931975    24.123276    4.7201621    1.4989759     6.219138     4.608369   0.11179304      35.3692      17.3673     24.69397 
 2691000    1.0000881    24.131648    4.7172984    1.5001285    6.2174269     4.606451   0.11084745    16.571265  0.056420334    22.654113 
 2694000   0.99939859    24.077189    4.7190025    1.4990942    6.2180966    4.6076057   0.11139675    41.996714    32.488877    13.042302 
 2697000     1.001487    24.138226    4.7174815    1.5022267    6.2197083    4.6056374    0.1118441    44.909258    42.645117    3.1058186 
 2700000    1.0010118     24.12425    4.7182166     1.501514    6.2197306    4.6062027   0.11201392    36.515702    9.3821536    37.220239 
 2703000   0.99973256    24.102917    4.7184685    1.4995951    6.2180636    4.6075731   0.11089535    58.893591    16.584095    58.037731 
 2706000    1.0017357    24.105839    4.7161406    1.5025998    6.2187405     4.605123   0.11101764    64.385166    28.760104    48.868409 
 2709000    1.0003868    24.089268    4.7147044    1.5005765    6.2152808    4.6042839   0.11042051    57.647521    31.877799     35.34942 
 2712000    1.0009995    24.168648    4.7188919    1.5014955    6.2203874    4.6074805    0.1114114    64.686909    23.688827    56.238807 
 2715000    1.0011682    24.139761    4.7168263    1.5017485    6.2185748    4.6057626   0.11106372    39.049884    9.8229242     40.09186 
 2718000   0.99998655    24.115242    4.7187758    1.4999761    6.2187519    4.6076165   0.11115933    39.323241    25.592182    18.835476 
 2721000   0.99832044    24.132608    4.7116122     1.497477    6.2090892       4.6019   0.10971222    50.735771    39.252006    15.752768 
 2724000   0.99979216    24.125569    4.7157719    1.4996845    6.2154564    4.6058491   0.10992278     57.77372    18.595589    53.742303 
 2727000    1.0011168    24.039229    4.7158699    1.5016715    6.2175414    4.6053833    0.1104866    45.637124    18.223652    37.604223 
 2730000    1.0032604    24.090804     4.716538    1.5048869    6.2214249    4.6052703    0.1112677     60.85558    23.729597    50.927286 
 2733000     1.000573    24.063555    4.7213682    1.5008558     6.222224    4.6090726   0.11229565    74.022367    27.708442    63.530775 
 2736000   0.99935114    24.042597    4.7169829     1.499023    6.2160059    4.6058149   0.11116802    51.424203    28.317686    31.696191 
 2739000   0.99945304    24.102374    4.7161893    1.4991759    6.2153652    4.6062504   0.10993899    41.363728    13.514162     38.20243 
 2742000    1.0008565    24.155803    4.7158386     1.501281    6.2171196    4.6049419   0.11089666    60.495725    31.200518    40.185477 
 2745000    1.0011271    24.052503    4.7157443    1.5016869    6.2174312    4.6065914   0.10915293     45.10294    22.909635    30.443496 
 2748000     1.001209    24.169004    4.7165852    1.5018098     6.218395    4.6063662     0.110219    37.264436    32.016002    7.1995004 
 2751000    1.0012199     24.17381     4.718288    1.5018261    6.2201141    4.6061923   0.11209565    48.888881    38.178444     14.69196 
 2754000    1.0007659    24.108998    4.7176771    1.5011452    6.2188223    4.6069766    0.1107005    23.402115    1.4606427    34.105299 
 2757000   0.99859558    24.073333     4.716134    1.4978897    6.2140236    4.6058273   0.11030671     45.68456    30.619447    20.665454 
 2760000   0.99933207    24.086559    4.7148865    1.4989944    6.2138809    4.6042189   0.11066763    64.080182    25.596821    52.789259 
 2763000   0.99880228     24.05302      4.71507    1.4981997    6.2132697    4.6052152   0.10985485    44.183645    30.246118    19.118697 
 2766000    1.0003434    24.109676    4.7186707    1.5005114    6.2191821    4.6081705   0.11050028    25.181825   0.34239812    34.073295 
 2769000   0.99881156    24.121486    4.7170084    1.4982136     6.215222    4.6056068   0.11140164    53.822479    41.605215    16.758939 
 2772000    1.0006986    24.109326    4.7159883    1.5010442    6.2170325    4.6055907   0.11039759    44.515925    18.616139    35.527835 
 2775000    1.0007396    24.039185     4.716609    1.5011056    6.2177146    4.6059854   0.11062367    40.556815    8.8921678    43.435739 
 2778000    1.0002444    24.161099    4.7154782    1.5003629    6.2158411     4.604483   0.11099528    51.254708    13.192799    52.211135 
 2781000    1.0016517    24.076365    4.7167545    1.5024738    6.2192283    4.6062401   0.11051447    51.237708    36.453554    20.280051 
 2784000    1.0016574    24.148907    4.7187329    1.5024824    6.2212153     4.608527   0.11020585     33.79888    21.553708    16.797222 
 2787000    1.0001471    24.202616    4.7147505     1.500217    6.2149675     4.604978   0.10977244    36.308734    16.617836    27.010839 
 2790000    1.0020535    24.102046    4.7163976    1.5030765    6.2194741    4.6049422   0.11145538    60.902127    25.480593    48.589219 
 2793000   0.99920881    23.958676    4.7173184    1.4988095    6.2161279    4.6053617   0.11195677    52.146371     20.62568    43.238269 
 2796000    1.0019473    24.122706    4.7174173    1.5029172    6.2203345    4.6050549   0.11236244    38.655003    21.292323    23.817125 
 2799000    1.0022273     24.10708      4.71759    1.5033373    6.2209273    4.6048712   0.11271885    46.674552    34.269629    17.016359 
 2802000   0.99963265    24.069989     4.717819    1.4994453    6.2172643     4.606889   0.11093006    31.389886    2.1889554    40.056155 
 2805000      1.00164     24.13542    4.7162853    1.5024563    6.2187416    4.6053009   0.11098446    68.489114    29.229442    53.854157 
 2808000    1.0021189    24.119755    4.7133737    1.5031747    6.2165484    4.6034904    0.1098833    33.292229    22.135563    15.304072 
 2811000    1.0010764    24.116199    4.7141637    1.5016109    6.2157746    4.6057042    0.1084595    52.466239    46.637989    7.9948574 
 2814000   0.99942769    24.132887    4.7175428    1.4991378    6.2166806    4.6062445   0.11129825    41.645791    18.377379    31.918268 
 2817000    1.0020537    24.142357    4.7175631    1.5030769    6.2206399    4.6071279    0.1104352    34.351486    15.407219    25.986654 
 2820000   0.99990454    24.122452    4.7171238    1.4998531    6.2169769    4.6054676   0.11165616    52.440413     54.79789    3.2338513 
 2823000   0.99932802    24.169909    4.7177063    1.4989883    6.2166946    4.6068018   0.11090445    46.702224    13.904205    44.990434 
 2826000    1.0011624    24.039723    4.7179191    1.5017399    6.2196591    4.6077511   0.11016806    46.382605    32.716492    18.746387 
 2829000    1.0015637    24.154546    4.7205881    1.5023419      6.22293    4.6093872    0.1112009    35.623451    3.9879536    43.395753 
 2832000    1.0022911    24.125381    4.7172697    1.5034329    6.2207026    4.6060593   0.11121041     32.06373     10.26061    29.908264 
 2835000    1.0022476    24.068549    4.7149445    1.5033677    6.2183122    4.6046985   0.11024598    37.283986    14.908226    30.693779 
 2838000   0.99774456    24.118793    4.7171109    1.4966131     6.213724    4.6048306   0.11228027    58.712089    18.020512    55.818363 
 2841000    1.0024871    24.061976     4.717095     1.503727     6.220822    4.6065716   0.11052335    43.329799    38.847091    6.1491214 
 2844000   0.99894043    24.007407    4.7163763    1.4984069    6.2147832    4.6061296    0.1102467    37.119484    16.447209    28.357036 
 2847000   0.99964677    24.112166    4.7178712    1.4994664    6.2173376    4.6056992   0.11217197    33.026622    12.540743    28.101349 
 2850000    1.0013547    24.103285    4.7147623    1.5020283    6.2167906    4.6056832   0.10907909    44.326212    39.646636    6.4191721 
 2853000    1.0019331    24.081218    4.7159352     1.502896    6.2188312    4.6059833   0.10995189     31.84855    31.497963   0.48091442 
 2856000     1.000249    24.126442    4.7184048    1.5003698    6.2187746    4.6065005   0.11190424    43.427905    30.254952    18.069898 
 2859000    1.0015956    24.103608    4.7159514    1.5023897    6.2183411    4.6060484   0.10990302    30.153183    24.538389    7.7020504 
 2862000    1.0033176    24.123309    4.7153549    1.5049726    6.2203275    4.6037315   0.11162338    58.931571    5.2520728    73.634444 
 2865000    1.0009671    24.126539    4.7177585    1.5014469    6.2192053    4.6066377   0.11112074     54.68455    32.216716    30.820081 
 2868000    1.0019966    24.159263    4.7158935    1.5029912    6.2188847    4.6059267   0.10996682    37.331152   0.50463722    51.900957 
 2871000   0.99989859    24.040158    4.7161714    1.4998442    6.2160155    4.6069109   0.10926052     33.48132    11.323005      30.3955 
 2874000    1.0000515    24.074174     4.714073    1.5000735    6.2141465    4.6046328   0.10944018    39.738038    17.763692    30.143143 
 2877000    1.0019866    24.085711    4.7143282    1.5029762    6.2173045    4.6051753   0.10915295     52.71957    31.174015    29.554951 
 2880000   0.99934743    24.048679    4.7183006    1.4990174     6.217318      4.60651   0.11179061    43.208377    31.881856    15.537069 
 2883000   0.99900718    24.103574    4.7128291    1.4985071    6.2113362    4.6034977   0.10933141    65.274765    28.393703    50.591317 
 2886000    1.0038352    24.089032    4.7156846     1.505749    6.2214336    4.6072231    0.1084615    63.980884    33.096716    42.365123 
 2889000     1.004897    24.087844    4.7157535    1.5073417    6.2230952     4.604217   0.11153644    54.770928    5.2962102    67.866568 
 2892000   0.99985487    24.054418    4.7166836    1.4997786    6.2164622    4.6050312   0.11165245    39.054672    26.701982    16.944709 
 2895000    1.0006026    24.126966    4.7164225    1.5009001    6.2173226    4.6054176    0.1110049    53.274584    44.438308    12.121094 
 2898000    1.0006275    24.036256    4.7174311    1.5009376    6.2183687    4.6061252   0.11130587     43.15983    26.356533    23.049796 
 2901000    1.0013821    24.113686     4.717821    1.5020694    6.2198905    4.6059863   0.11183473    43.410574    19.017007    33.461691 
 2904000   0.99995077     24.05343    4.7130633    1.4999224    6.2129857    4.6036086   0.10945467    54.882641    39.578455    20.993402 
 2907000   0.99615203    24.069166    4.7127721    1.4942243    6.2069964    4.6050294   0.10774267    24.756126    3.2287837    29.529969 
 2910000   0.99900332    24.188588    4.7153051    1.4985013    6.2138063    4.6060919   0.10921316    55.736974    16.480714    53.849477 
 2913000   0.99944722    24.152282    4.7157208    1.4991671    6.2148879    4.6056202   0.11010064    42.933361    17.184299    35.321081 
 2916000    1.0018629    24.096309    4.7167091    1.5027906    6.2194997    4.6067038   0.11000532    57.100518    41.350092    21.605526 
 2919000     1.000846    24.146198    4.7191217    1.5012652    6.2203869    4.6082185   0.11090325    24.856206    10.399266    19.831199 
 2922000    1.0016907    24.142057    4.7183969    1.5025324    6.2209293    4.6065232   0.11187364    54.609554    26.911629    37.994417 
 2925000     1.000874    24.153596    4.7158197    1.5013074    6.2171271    4.6053281   0.11049156     7.687582    6.2683868    1.9467702 
 2928000    1.0018081    24.077461    4.7157342    1.5027084    6.2184426    4.6056206   0.11011364    34.721236    20.903198    18.954789 
 2931000    1.0016012    24.089196    4.7178778     1.502398    6.2202758    4.6066879    0.1111899     46.82386    22.581312    33.254531 
 2934000    1.0012655    24.078792    4.7134483    1.5018946    6.2153429    4.6031423   0.11030601    44.650787    12.513974    44.083429 
 2937000    1.0014895    24.098962    4.7204531    1.5022306    6.2226837    4.6103133   0.11013981    46.217043    29.944907     22.32118 
 2940000    1.0012953    24.113458    4.7184704    1.5019392    6.2204096     4.608742   0.10972843    41.224145    12.793574     38.99942 
 2943000    1.0032843    24.096315    4.7160768    1.5049227    6.2209995     4.606435   0.10964174    68.292611    45.570657    31.168668 
 2946000    1.0012796    24.073306    4.7170614    1.5019157    6.2189772    4.6057524   0.11130904     49.75861    33.704195    22.022521 
 2949000    1.0032161    24.126542    4.7145648    1.5048204    6.2193852    4.6045178   0.11004704    40.035294     30.01075    13.751092 
 2952000    1.0002507    24.039815    4.7180579    1.5003723    6.2184302    4.6070451   0.11101275    49.756792    6.0597673    59.941061 
 2955000    1.0007231    24.135899    4.7172416    1.5010809    6.2183225     4.605049   0.11219257    37.888087    8.2297585    40.683587 
 2958000     1.000972    24.062003    4.7164951    1.5014543    6.2179495    4.6064523   0.11004283    54.916306    19.245427    48.931257 
 2961000    1.0009564    24.091649    4.7172532    1.5014309    6.2186842    4.6050809   0.11217237    41.544707    46.610052    6.9483482 
 2964000    1.0000122    24.111271    4.7153744    1.5000146     6.215389    4.6065787   0.10879565    50.575125    31.091509    26.726503 
 2967000    1.0020335    24.055128    4.7137683    1.5030465    6.2168147    4.6043712   0.10939706    47.330769    36.602753    14.716075 
 2970000    1.0005738    24.133887    4.7142891    1.5008569     6.215146    4.6039125   0.11037659    28.447765     6.895624    29.563986 
 2973000    1.0015674    24.071083    4.7196637    1.5023473     6.222011     4.607185   0.11247869    45.454575    25.485961    27.391795 
 2976000   0.99982324    24.090646    4.7170973    1.4997311    6.2168285     4.607307   0.10979032     34.44691    19.000509    21.188483 
 2979000    1.0007911     24.05097    4.7190974    1.5011829    6.2202804    4.6093203   0.10977715    42.162366     22.73052    26.655487 
 2982000   0.99993249    24.066906    4.7162337     1.499895    6.2161287     4.605433   0.11080071    61.274702    32.052452      40.0854 
 2985000   0.99856281    24.156738    4.7186375    1.4978405     6.216478    4.6076475   0.11099004    30.949657     12.94601    24.696367 
 2988000   0.99876206    24.140535    4.7175875    1.4981394    6.2157269    4.6077231   0.10986445    62.878434    36.156946    36.654997 
 2991000   0.99961829    24.083485    4.7169229    1.4994237    6.2163466    4.6068858   0.11003702    47.984111    7.8998518    54.985278 
 2994000    1.0030406    24.142932    4.7150456    1.5045572    6.2196028    4.6052911    0.1097545    46.673364    26.140159    28.166268 
 2997000    1.0024413    24.101086    4.7168082    1.5036582    6.2204663     4.606545   0.11026321    62.793889    48.594598     19.47777 
 3000000   0.99779482    24.019019    4.7164448    1.4966885    6.2131334    4.6064025   0.11004237    36.312259    11.797262    33.628261 
Loop time of 143475 on 24 procs for 3000000 steps with 403744 atoms

Performance: 3613.172 tau/day, 20.910 timesteps/s
98.4% CPU use with 24 MPI tasks x no OpenMP threads

MPI task timing breakdown:
Section |  min time  |  avg time  |  max time  |%varavg| %total
---------------------------------------------------------------
Pair    | 93128      | 96150      | 99771      | 582.8 | 67.02
Bond    | 3847.1     | 5037.3     | 5627.5     | 739.3 |  3.51
Neigh   | 3526.9     | 3528.5     | 3529.8     |   1.4 |  2.46
Comm    | 6074.3     | 9577.2     | 13745      |2221.9 |  6.68
Output  | 0.18145    | 0.18289    | 0.20891    |   1.3 |  0.00
Modify  | 27136      | 27262      | 27394      |  46.7 | 19.00
Other   |            | 1920       |            |       |  1.34

Nlocal:    16822.7 ave 16907 max 16746 min
Histogram: 1 1 6 2 3 5 1 3 1 1
Nghost:    23919.1 ave 23984 max 23821 min
Histogram: 2 1 0 2 2 2 7 3 0 5
Neighs:    2.85194e+06 ave 2.88897e+06 max 2.80884e+06 min
Histogram: 1 2 6 1 2 1 2 3 2 4

Total # of neighbors = 68446591
Ave neighs/atom = 169.53
Ave special neighs/atom = 0.0834588
Neighbor list builds = 30297
Dangerous builds = 0

clear
next T
next concentracao
next index_simu
jump input_lammps.inp
Total wall time: 52:33:05
